       N       E                     dE             d eps       ncg     rms          rms(c)
DAV:   1     0.244833305621E+03    0.24483E+03   -0.10205E+04   120   0.484E+02
DAV:   2    -0.235453909109E+02   -0.26838E+03   -0.25398E+03   156   0.916E+01
DAV:   3    -0.103762287082E+03   -0.80217E+02   -0.80008E+02   120   0.553E+01
DAV:   4    -0.107645731890E+03   -0.38834E+01   -0.38691E+01   120   0.176E+01
DAV:   5    -0.107729094294E+03   -0.83362E-01   -0.83275E-01   156   0.290E+00    0.157E+01
DAV:   6    -0.104206441328E+03    0.35227E+01   -0.16246E+00   120   0.436E+00    0.905E+00
DAV:   7    -0.102396223150E+03    0.18102E+01   -0.43065E+00   120   0.637E+00    0.131E+00
DAV:   8    -0.102342000614E+03    0.54223E-01   -0.32655E-01   132   0.218E+00    0.691E-01
DAV:   9    -0.102307701278E+03    0.34299E-01   -0.64462E-02   132   0.678E-01    0.365E-01
DAV:  10    -0.102306654369E+03    0.10469E-02   -0.31179E-03   132   0.191E-01    0.165E-01
DAV:  11    -0.102305752973E+03    0.90140E-03   -0.60314E-03   120   0.208E-01    0.106E-01
DAV:  12    -0.102308999546E+03   -0.32466E-02   -0.11835E-03   120   0.895E-02    0.687E-02
DAV:  13    -0.102314716345E+03   -0.57168E-02   -0.19979E-03   132   0.107E-01    0.407E-02
DAV:  14    -0.102317278858E+03   -0.25625E-02   -0.21163E-04   144   0.388E-02    0.267E-02
DAV:  15    -0.102323132661E+03   -0.58538E-02   -0.74826E-04   120   0.685E-02    0.209E-02
DAV:  16    -0.102324093954E+03   -0.96129E-03   -0.55216E-05   132   0.257E-02    0.974E-03
DAV:  17    -0.102325612630E+03   -0.15187E-02   -0.17282E-04   120   0.276E-02    0.666E-03
DAV:  18    -0.102325710094E+03   -0.97463E-04   -0.31232E-06   144   0.559E-03    0.311E-03
DAV:  19    -0.102326019303E+03   -0.30921E-03   -0.12786E-05   108   0.762E-03    0.225E-03
DAV:  20    -0.102326074261E+03   -0.54958E-04   -0.97964E-07    96   0.281E-03    0.116E-03
DAV:  21    -0.102326117456E+03   -0.43196E-04   -0.11583E-06    96   0.240E-03    0.642E-04
DAV:  22    -0.102326127169E+03   -0.97129E-05   -0.16185E-07   108   0.109E-03    0.440E-04
DAV:  23    -0.102326130928E+03   -0.37586E-05   -0.55208E-08    96   0.574E-04    0.254E-04
DAV:  24    -0.102326135105E+03   -0.41769E-05   -0.62647E-08   108   0.576E-04    0.118E-04
DAV:  25    -0.102326135828E+03   -0.72358E-06   -0.37127E-09   108   0.259E-04
   1 F= -.10232614E+03 E0= -.10232614E+03  d E =-.330814E-10
       N       E                     dE             d eps       ncg     rms          rms(c)
DAV:   1    -0.102322642118E+03    0.34930E-02   -0.83549E-02   120   0.836E-01    0.126E-01
DAV:   2    -0.102322994312E+03   -0.35219E-03   -0.39708E-03   132   0.213E-01    0.565E-02
DAV:   3    -0.102322981621E+03    0.12691E-04   -0.14955E-04   144   0.456E-02    0.293E-02
DAV:   4    -0.102322984652E+03   -0.30313E-05   -0.33821E-05   132   0.220E-02    0.833E-03
DAV:   5    -0.102322983992E+03    0.65961E-06   -0.64377E-06   132   0.987E-03
   2 F= -.10232298E+03 E0= -.10232298E+03  d E =-.493147E-10
       N       E                     dE             d eps       ncg     rms          rms(c)
DAV:   1    -0.102321723512E+03    0.12611E-02   -0.32819E-01    96   0.169E+00    0.260E-01
DAV:   2    -0.102323144417E+03   -0.14209E-02   -0.15975E-02   132   0.425E-01    0.113E-01
DAV:   3    -0.102323094500E+03    0.49917E-04   -0.58935E-04   132   0.892E-02    0.601E-02
DAV:   4    -0.102323110518E+03   -0.16018E-04   -0.14064E-04   132   0.440E-02    0.174E-02
DAV:   5    -0.102323107922E+03    0.25963E-05   -0.25954E-05   132   0.198E-02    0.977E-03
DAV:   6    -0.102323107444E+03    0.47809E-06   -0.51600E-06   132   0.791E-03
   3 F= -.10232311E+03 E0= -.10232311E+03  d E =-.544675E-10
       N       E                     dE             d eps       ncg     rms          rms(c)
DAV:   1    -0.102322362505E+03    0.74542E-03   -0.16797E-01    96   0.117E+00    0.156E-01
DAV:   2    -0.102323081589E+03   -0.71908E-03   -0.78058E-03   132   0.293E-01    0.769E-02
DAV:   3    -0.102323069390E+03    0.12199E-04   -0.28187E-04   144   0.624E-02    0.387E-02
DAV:   4    -0.102323081751E+03   -0.12361E-04   -0.59482E-05   132   0.291E-02    0.112E-02
DAV:   5    -0.102323081396E+03    0.35409E-06   -0.10050E-05   132   0.126E-02    0.610E-03
DAV:   6    -0.102323081858E+03   -0.46112E-06   -0.28106E-06   132   0.576E-03
   4 F= -.10232308E+03 E0= -.10232308E+03  d E =-.703212E-10
       N       E                     dE             d eps       ncg     rms          rms(c)
DAV:   1    -0.102321608251E+03    0.14731E-02   -0.33301E-01    96   0.169E+00    0.244E-01
DAV:   2    -0.102323107674E+03   -0.14994E-02   -0.16244E-02   132   0.429E-01    0.112E-01
DAV:   3    -0.102323067858E+03    0.39815E-04   -0.54623E-04   132   0.888E-02    0.587E-02
DAV:   4    -0.102323082805E+03   -0.14947E-04   -0.13876E-04   132   0.447E-02    0.162E-02
DAV:   5    -0.102323078388E+03    0.44176E-05   -0.25136E-05   132   0.197E-02    0.919E-03
DAV:   6    -0.102323077732E+03    0.65634E-06   -0.56985E-06   132   0.834E-03
   5 F= -.10232308E+03 E0= -.10232308E+03  d E =-.610111E-10
       N       E                     dE             d eps       ncg     rms          rms(c)
DAV:   1    -0.102320928515E+03    0.21499E-02   -0.16424E-01    96   0.121E+00    0.163E-01
DAV:   2    -0.102321832240E+03   -0.90372E-03   -0.96095E-03   132   0.333E-01    0.917E-02
DAV:   3    -0.102321795532E+03    0.36708E-04   -0.28152E-04   132   0.667E-02    0.490E-02
DAV:   4    -0.102321803135E+03   -0.76030E-05   -0.11015E-04   132   0.396E-02    0.115E-02
DAV:   5    -0.102321801752E+03    0.13837E-05   -0.21114E-05   132   0.173E-02    0.740E-03
DAV:   6    -0.102321803500E+03   -0.17486E-05   -0.35874E-06   132   0.615E-03    0.473E-03
DAV:   7    -0.102321808949E+03   -0.54491E-05   -0.45854E-07   108   0.250E-03    0.174E-03
DAV:   8    -0.102321814556E+03   -0.56072E-05   -0.48519E-07   108   0.242E-03    0.688E-04
DAV:   9    -0.102321820152E+03   -0.55954E-05   -0.36461E-07   108   0.181E-03    0.555E-04
DAV:  10    -0.102321827136E+03   -0.69837E-05   -0.55871E-07   120   0.168E-03    0.485E-04
DAV:  11    -0.102321828390E+03   -0.12548E-05   -0.40708E-08   108   0.739E-04    0.345E-04
DAV:  12    -0.102321830011E+03   -0.16207E-05   -0.33736E-08   108   0.530E-04    0.174E-04
DAV:  13    -0.102321831561E+03   -0.15501E-05   -0.46219E-08   108   0.475E-04    0.102E-04
DAV:  14    -0.102321832527E+03   -0.96623E-06   -0.18022E-08   108   0.308E-04
   6 F= -.10232183E+03 E0= -.10232183E+03  d E =-.740578E-10
       N       E                     dE             d eps       ncg     rms          rms(c)
DAV:   1    -0.102319535283E+03    0.22963E-02   -0.33577E-01    96   0.172E+00    0.263E-01
DAV:   2    -0.102321851295E+03   -0.23160E-02   -0.25048E-02   120   0.546E-01    0.168E-01
DAV:   3    -0.102321680628E+03    0.17067E-03   -0.67107E-04   132   0.113E-01    0.873E-02
DAV:   4    -0.102321681225E+03   -0.59734E-06   -0.45804E-04   132   0.785E-02    0.174E-02
DAV:   5    -0.102321671942E+03    0.92835E-05   -0.70574E-05   132   0.316E-02    0.129E-02
DAV:   6    -0.102321672011E+03   -0.69606E-07   -0.12461E-05   132   0.101E-02    0.814E-03
DAV:   7    -0.102321682776E+03   -0.10765E-04   -0.98208E-07   108   0.375E-03    0.351E-03
DAV:   8    -0.102321701858E+03   -0.19082E-04   -0.23505E-06   132   0.555E-03    0.150E-03
DAV:   9    -0.102321715880E+03   -0.14022E-04   -0.12037E-06   132   0.296E-03    0.176E-03
DAV:  10    -0.102321734825E+03   -0.18945E-04   -0.75961E-07   108   0.208E-03    0.862E-04
DAV:  11    -0.102321741908E+03   -0.70824E-05   -0.37071E-07   108   0.131E-03    0.576E-04
DAV:  12    -0.102321749163E+03   -0.72553E-05   -0.17941E-07   108   0.984E-04    0.237E-04
DAV:  13    -0.102321753727E+03   -0.45635E-05   -0.13756E-07   108   0.723E-04    0.243E-04
DAV:  14    -0.102321756266E+03   -0.25397E-05   -0.33501E-08   108   0.432E-04    0.117E-04
DAV:  15    -0.102321757403E+03   -0.11366E-05   -0.10770E-08   108   0.288E-04    0.680E-05
DAV:  16    -0.102321758080E+03   -0.67733E-06    0.67070E-10   108   0.182E-04
   7 F= -.10232176E+03 E0= -.10232176E+03  d E =-.579909E-10
       N       E                     dE             d eps       ncg     rms          rms(c)
DAV:   1    -0.102320853579E+03    0.90382E-03   -0.19088E-01    96   0.136E+00    0.191E-01
DAV:   2    -0.102322273790E+03   -0.14202E-02   -0.14738E-02   132   0.433E-01    0.120E-01
DAV:   3    -0.102322187816E+03    0.85974E-04   -0.38640E-04   132   0.851E-02    0.660E-02
DAV:   4    -0.102322186343E+03    0.14727E-05   -0.23636E-04   132   0.608E-02    0.121E-02
DAV:   5    -0.102322181706E+03    0.46367E-05   -0.49414E-05   132   0.258E-02    0.101E-02
DAV:   6    -0.102322182313E+03   -0.60652E-06   -0.46389E-06   144   0.689E-03
   8 F= -.10232218E+03 E0= -.10232218E+03  d E =-.721123E-10
       N       E                     dE             d eps       ncg     rms          rms(c)
DAV:   1    -0.102320165159E+03    0.20165E-02   -0.33558E-01    96   0.177E+00    0.263E-01
DAV:   2    -0.102322203263E+03   -0.20381E-02   -0.20967E-02   120   0.497E-01    0.153E-01
DAV:   3    -0.102322129989E+03    0.73274E-04   -0.56139E-04   132   0.935E-02    0.811E-02
DAV:   4    -0.102322129159E+03    0.83028E-06   -0.23280E-04   132   0.576E-02    0.157E-02
DAV:   5    -0.102322119901E+03    0.92581E-05   -0.40311E-05   144   0.240E-02    0.107E-02
DAV:   6    -0.102322118720E+03    0.11806E-05   -0.74083E-06   132   0.103E-02    0.619E-03
DAV:   7    -0.102322130176E+03   -0.11456E-04   -0.39879E-06   144   0.809E-03    0.208E-03
DAV:   8    -0.102322145514E+03   -0.15338E-04   -0.15413E-06   120   0.513E-03    0.165E-03
DAV:   9    -0.102322156476E+03   -0.10962E-04   -0.57847E-07   108   0.254E-03    0.152E-03
DAV:  10    -0.102322174487E+03   -0.18011E-04   -0.94922E-07   120   0.208E-03    0.526E-04
DAV:  11    -0.102322180808E+03   -0.63215E-05   -0.29251E-07   108   0.139E-03    0.579E-04
DAV:  12    -0.102322186156E+03   -0.53482E-05   -0.12002E-07    96   0.115E-03    0.407E-04
DAV:  13    -0.102322191738E+03   -0.55814E-05   -0.21185E-07   108   0.102E-03    0.328E-04
DAV:  14    -0.102322193206E+03   -0.14682E-05   -0.24240E-08   120   0.442E-04    0.192E-04
DAV:  15    -0.102322195241E+03   -0.20347E-05   -0.38438E-08    96   0.519E-04    0.106E-04
DAV:  16    -0.102322195676E+03   -0.43568E-06   -0.11508E-09   120   0.255E-04
   9 F= -.10232220E+03 E0= -.10232220E+03  d E =-.568215E-10
       N       E                     dE             d eps       ncg     rms          rms(c)
DAV:   1    -0.102320175299E+03    0.20199E-02   -0.16908E-01    96   0.126E+00    0.185E-01
DAV:   2    -0.102321274274E+03   -0.10990E-02   -0.11374E-02   132   0.370E-01    0.116E-01
DAV:   3    -0.102321222151E+03    0.52123E-04   -0.28112E-04   132   0.697E-02    0.625E-02
DAV:   4    -0.102321217579E+03    0.45724E-05   -0.16337E-04   132   0.489E-02    0.117E-02
DAV:   5    -0.102321213351E+03    0.42274E-05   -0.34956E-05   132   0.218E-02    0.886E-03
DAV:   6    -0.102321215270E+03   -0.19190E-05   -0.75503E-06   132   0.866E-03    0.548E-03
DAV:   7    -0.102321225518E+03   -0.10248E-04   -0.17350E-06   132   0.454E-03    0.216E-03
DAV:   8    -0.102321238803E+03   -0.13285E-04   -0.10352E-06   120   0.301E-03    0.843E-04
DAV:   9    -0.102321252923E+03   -0.14119E-04   -0.13347E-06   120   0.277E-03    0.981E-04
DAV:  10    -0.102321265777E+03   -0.12854E-04   -0.11713E-06   120   0.234E-03    0.413E-04
DAV:  11    -0.102321270273E+03   -0.44961E-05   -0.19609E-07   108   0.107E-03    0.187E-04
DAV:  12    -0.102321273536E+03   -0.32635E-05   -0.13430E-07   108   0.751E-04    0.154E-04
DAV:  13    -0.102321275138E+03   -0.16013E-05   -0.43213E-08   108   0.446E-04    0.935E-05
DAV:  14    -0.102321276053E+03   -0.91492E-06   -0.12748E-08   108   0.294E-04
  10 F= -.10232128E+03 E0= -.10232128E+03  d E =-.519367E-10
       N       E                     dE             d eps       ncg     rms          rms(c)
DAV:   1    -0.102319088458E+03    0.21867E-02   -0.34922E-01    96   0.181E+00    0.272E-01
DAV:   2    -0.102321385034E+03   -0.22966E-02   -0.23598E-02   132   0.535E-01    0.179E-01
DAV:   3    -0.102321239796E+03    0.14524E-03   -0.65008E-04   144   0.111E-01    0.848E-02
DAV:   4    -0.102321258455E+03   -0.18658E-04   -0.42522E-04   132   0.756E-02    0.180E-02
DAV:   5    -0.102321245569E+03    0.12886E-04   -0.61083E-05   132   0.288E-02    0.123E-02
DAV:   6    -0.102321249438E+03   -0.38696E-05   -0.16966E-05   132   0.114E-02    0.581E-03
DAV:   7    -0.102321267582E+03   -0.18144E-04   -0.25283E-06   132   0.510E-03    0.220E-03
DAV:   8    -0.102321293291E+03   -0.25709E-04   -0.24729E-06   132   0.415E-03    0.154E-03
DAV:   9    -0.102321316029E+03   -0.22738E-04   -0.16230E-06   132   0.298E-03    0.109E-03
DAV:  10    -0.102321335386E+03   -0.19357E-04   -0.15069E-06   108   0.263E-03    0.555E-04
DAV:  11    -0.102321344020E+03   -0.86346E-05   -0.31692E-07   108   0.141E-03    0.282E-04
DAV:  12    -0.102321349452E+03   -0.54318E-05   -0.22099E-07    96   0.943E-04    0.159E-04
DAV:  13    -0.102321351945E+03   -0.24927E-05   -0.36241E-08   108   0.476E-04    0.760E-05
DAV:  14    -0.102321353542E+03   -0.15970E-05   -0.25056E-08    96   0.354E-04    0.787E-05
DAV:  15    -0.102321354330E+03   -0.78826E-06   -0.38529E-09   108   0.223E-04
  11 F= -.10232135E+03 E0= -.10232135E+03  d E =-.819966E-10
       N       E                     dE             d eps       ncg     rms          rms(c)
DAV:   1    -0.102321571570E+03   -0.21803E-03   -0.17122E-01    96   0.127E+00    0.191E-01
DAV:   2    -0.102322731596E+03   -0.11600E-02   -0.11986E-02   132   0.389E-01    0.121E-01
DAV:   3    -0.102322666745E+03    0.64852E-04   -0.30323E-04   144   0.741E-02    0.628E-02
DAV:   4    -0.102322669230E+03   -0.24850E-05   -0.18999E-04   132   0.529E-02    0.119E-02
DAV:   5    -0.102322663296E+03    0.59332E-05   -0.40924E-05   132   0.234E-02    0.886E-03
DAV:   6    -0.102322664593E+03   -0.12966E-05   -0.77467E-06   132   0.820E-03    0.541E-03
DAV:   7    -0.102322673736E+03   -0.91430E-05   -0.99400E-07   108   0.370E-03    0.228E-03
DAV:   8    -0.102322687461E+03   -0.13725E-04   -0.17877E-06   120   0.396E-03    0.100E-03
DAV:   9    -0.102322698733E+03   -0.11272E-04   -0.83323E-07   108   0.259E-03    0.964E-04
DAV:  10    -0.102322710478E+03   -0.11745E-04   -0.11219E-06   120   0.220E-03    0.376E-04
DAV:  11    -0.102322714695E+03   -0.42165E-05   -0.14582E-07   108   0.999E-04    0.215E-04
DAV:  12    -0.102322718172E+03   -0.34771E-05   -0.12777E-07   108   0.748E-04    0.130E-04
DAV:  13    -0.102322719804E+03   -0.16317E-05   -0.40999E-08   108   0.438E-04    0.141E-04
DAV:  14    -0.102322721094E+03   -0.12906E-05   -0.20654E-08   108   0.337E-04    0.464E-05
DAV:  15    -0.102322721562E+03   -0.46805E-06   -0.10275E-09   108   0.188E-04
  12 F= -.10232272E+03 E0= -.10232272E+03  d E =-.533382E-10
       N       E                     dE             d eps       ncg     rms          rms(c)
DAV:   1    -0.102321025252E+03    0.16958E-02   -0.33131E-01    96   0.169E+00    0.273E-01
DAV:   2    -0.102322743481E+03   -0.17182E-02   -0.18145E-02   144   0.453E-01    0.133E-01
DAV:   3    -0.102322686385E+03    0.57096E-04   -0.56901E-04   132   0.902E-02    0.717E-02
DAV:   4    -0.102322696831E+03   -0.10446E-04   -0.19771E-04   132   0.565E-02    0.158E-02
DAV:   5    -0.102322690859E+03    0.59714E-05   -0.47833E-05   144   0.263E-02    0.115E-02
DAV:   6    -0.102322690254E+03    0.60592E-06   -0.70626E-06   132   0.940E-03
  13 F= -.10232269E+03 E0= -.10232269E+03  d E =-.839338E-10
       N       E                     dE             d eps       ncg     rms          rms(c)
DAV:   1    -0.102320301913E+03    0.23889E-02   -0.16871E-01    96   0.129E+00    0.192E-01
DAV:   2    -0.102321554382E+03   -0.12525E-02   -0.12914E-02   132   0.399E-01    0.114E-01
DAV:   3    -0.102321503307E+03    0.51075E-04   -0.35460E-04   144   0.769E-02    0.652E-02
DAV:   4    -0.102321523881E+03   -0.20574E-04   -0.19477E-04   132   0.564E-02    0.133E-02
DAV:   5    -0.102321522990E+03    0.89135E-06   -0.52218E-05   144   0.269E-02    0.105E-02
DAV:   6    -0.102321521673E+03    0.13168E-05   -0.57961E-06   132   0.820E-03    0.711E-03
DAV:   7    -0.102321524846E+03   -0.31729E-05   -0.18579E-06   132   0.520E-03    0.274E-03
DAV:   8    -0.102321530015E+03   -0.51691E-05   -0.54044E-07   108   0.339E-03    0.777E-04
DAV:   9    -0.102321536301E+03   -0.62858E-05   -0.52499E-07   108   0.237E-03    0.998E-04
DAV:  10    -0.102321544985E+03   -0.86844E-05   -0.45082E-07   108   0.180E-03    0.317E-04
DAV:  11    -0.102321547379E+03   -0.23939E-05   -0.10718E-07   108   0.921E-04    0.270E-04
DAV:  12    -0.102321550548E+03   -0.31689E-05   -0.73750E-08   108   0.686E-04    0.146E-04
DAV:  13    -0.102321553125E+03   -0.25764E-05   -0.83771E-08   108   0.610E-04    0.113E-04
DAV:  14    -0.102321554375E+03   -0.12503E-05   -0.20324E-08   108   0.332E-04    0.827E-05
DAV:  15    -0.102321555136E+03   -0.76093E-06   -0.60852E-09   108   0.237E-04
  14 F= -.10232156E+03 E0= -.10232156E+03  d E =-.410337E-10
       N       E                     dE             d eps       ncg     rms          rms(c)
DAV:   1    -0.102319595222E+03    0.19592E-02   -0.35565E-01    96   0.179E+00    0.259E-01
DAV:   2    -0.102321712864E+03   -0.21176E-02   -0.21881E-02   132   0.537E-01    0.169E-01
DAV:   3    -0.102321612691E+03    0.10017E-03   -0.55939E-04   156   0.102E-01    0.870E-02
DAV:   4    -0.102321619830E+03   -0.71385E-05   -0.34750E-04   132   0.716E-02    0.172E-02
DAV:   5    -0.102321611133E+03    0.86966E-05   -0.72831E-05   132   0.315E-02    0.118E-02
DAV:   6    -0.102321617712E+03   -0.65788E-05   -0.16938E-05   132   0.116E-02    0.691E-03
DAV:   7    -0.102321637178E+03   -0.19466E-04   -0.16993E-06   132   0.466E-03    0.305E-03
DAV:   8    -0.102321665464E+03   -0.28286E-04   -0.27481E-06   132   0.441E-03    0.104E-03
DAV:   9    -0.102321685229E+03   -0.19765E-04   -0.18081E-06   132   0.331E-03    0.136E-03
DAV:  10    -0.102321708064E+03   -0.22835E-04   -0.21605E-06   120   0.318E-03    0.482E-04
DAV:  11    -0.102321712909E+03   -0.48445E-05   -0.16695E-07   108   0.114E-03    0.366E-04
DAV:  12    -0.102321718493E+03   -0.55844E-05   -0.17643E-07    96   0.938E-04    0.170E-04
DAV:  13    -0.102321721776E+03   -0.32828E-05   -0.14532E-07   108   0.749E-04    0.193E-04
DAV:  14    -0.102321723523E+03   -0.17472E-05   -0.34081E-08   108   0.443E-04    0.956E-05
DAV:  15    -0.102321724052E+03   -0.52832E-06   -0.36998E-09   120   0.226E-04
  15 F= -.10232172E+03 E0= -.10232172E+03  d E =-.532494E-11
       N       E                     dE             d eps       ncg     rms          rms(c)
DAV:   1    -0.102320919543E+03    0.80398E-03   -0.17721E-01    96   0.127E+00    0.184E-01
DAV:   2    -0.102322093739E+03   -0.11742E-02   -0.12026E-02   132   0.389E-01    0.127E-01
DAV:   3    -0.102322022134E+03    0.71604E-04   -0.30952E-04   132   0.771E-02    0.606E-02
DAV:   4    -0.102322028371E+03   -0.62365E-05   -0.21837E-04   132   0.556E-02    0.130E-02
DAV:   5    -0.102322020923E+03    0.74479E-05   -0.35993E-05   132   0.225E-02    0.877E-03
DAV:   6    -0.102322022820E+03   -0.18966E-05   -0.87787E-06   132   0.814E-03    0.398E-03
DAV:   7    -0.102322032847E+03   -0.10027E-04   -0.68276E-07   108   0.295E-03    0.192E-03
DAV:   8    -0.102322050846E+03   -0.17999E-04   -0.25021E-06   132   0.405E-03    0.129E-03
DAV:   9    -0.102322064591E+03   -0.13745E-04   -0.84323E-07   108   0.251E-03    0.760E-04
DAV:  10    -0.102322074858E+03   -0.10267E-04   -0.79875E-07   108   0.189E-03    0.389E-04
DAV:  11    -0.102322080505E+03   -0.56464E-05   -0.22737E-07   108   0.102E-03    0.171E-04
DAV:  12    -0.102322083564E+03   -0.30597E-05   -0.94770E-08   108   0.665E-04    0.122E-04
DAV:  13    -0.102322084963E+03   -0.13987E-05   -0.23373E-08   108   0.379E-04    0.929E-05
DAV:  14    -0.102322086083E+03   -0.11200E-05   -0.13289E-08   108   0.293E-04    0.333E-05
DAV:  15    -0.102322086535E+03   -0.45177E-06    0.78741E-10   108   0.169E-04
  16 F= -.10232209E+03 E0= -.10232209E+03  d E =-.652193E-10
       N       E                     dE             d eps       ncg     rms          rms(c)
DAV:   1    -0.102320155843E+03    0.19302E-02   -0.34312E-01    96   0.183E+00    0.262E-01
DAV:   2    -0.102322136574E+03   -0.19807E-02   -0.20490E-02   132   0.505E-01    0.153E-01
DAV:   3    -0.102322051465E+03    0.85109E-04   -0.53027E-04   132   0.946E-02    0.784E-02
DAV:   4    -0.102322057513E+03   -0.60479E-05   -0.27664E-04   132   0.639E-02    0.160E-02
DAV:   5    -0.102322047739E+03    0.97738E-05   -0.55069E-05   132   0.278E-02    0.119E-02
DAV:   6    -0.102322046827E+03    0.91200E-06   -0.11571E-05   132   0.107E-02    0.714E-03
DAV:   7    -0.102322055797E+03   -0.89704E-05   -0.21066E-06   132   0.566E-03    0.275E-03
DAV:   8    -0.102322070183E+03   -0.14386E-04   -0.13022E-06   132   0.410E-03    0.118E-03
DAV:   9    -0.102322087725E+03   -0.17541E-04   -0.12118E-06   132   0.313E-03    0.132E-03
DAV:  10    -0.102322103743E+03   -0.16018E-04   -0.77027E-07   108   0.227E-03    0.571E-04
DAV:  11    -0.102322112344E+03   -0.86005E-05   -0.36824E-07   108   0.138E-03    0.264E-04
DAV:  12    -0.102322118976E+03   -0.66327E-05   -0.18526E-07   108   0.904E-04    0.232E-04
DAV:  13    -0.102322121799E+03   -0.28223E-05   -0.49748E-08   108   0.506E-04    0.141E-04
DAV:  14    -0.102322123979E+03   -0.21803E-05   -0.35775E-08   108   0.398E-04    0.533E-05
DAV:  15    -0.102322124630E+03   -0.65144E-06   -0.44810E-10   120   0.196E-04
  17 F= -.10232212E+03 E0= -.10232212E+03  d E =-.644315E-10
       N       E                     dE             d eps       ncg     rms          rms(c)
DAV:   1    -0.102321555619E+03    0.56836E-03   -0.17327E-01    96   0.130E+00    0.176E-01
DAV:   2    -0.102322576704E+03   -0.10211E-02   -0.10604E-02   132   0.365E-01    0.114E-01
DAV:   3    -0.102322532278E+03    0.44426E-04   -0.25504E-04   144   0.653E-02    0.595E-02
DAV:   4    -0.102322516525E+03    0.15753E-04   -0.11980E-04   132   0.413E-02    0.108E-02
DAV:   5    -0.102322513655E+03    0.28698E-05   -0.18507E-05   132   0.167E-02    0.722E-03
DAV:   6    -0.102322519791E+03   -0.61363E-05   -0.62817E-06   132   0.846E-03    0.406E-03
DAV:   7    -0.102322537400E+03   -0.17608E-04   -0.21204E-06   132   0.531E-03    0.151E-03
DAV:   8    -0.102322553785E+03   -0.16386E-04   -0.10543E-06   108   0.346E-03    0.983E-04
DAV:   9    -0.102322573756E+03   -0.19971E-04   -0.22205E-06   120   0.338E-03    0.766E-04
DAV:  10    -0.102322586331E+03   -0.12575E-04   -0.11164E-06   120   0.231E-03    0.353E-04
DAV:  11    -0.102322589936E+03   -0.36051E-05   -0.11534E-07   120   0.851E-04    0.216E-04
DAV:  12    -0.102322594439E+03   -0.45028E-05   -0.28359E-07   108   0.102E-03    0.165E-04
DAV:  13    -0.102322595236E+03   -0.79728E-06   -0.19820E-08   120   0.360E-04
  18 F= -.10232260E+03 E0= -.10232260E+03  d E =-.556283E-10
       N       E                     dE             d eps       ncg     rms          rms(c)
DAV:   1    -0.102320527990E+03    0.20664E-02   -0.33315E-01    96   0.180E+00    0.213E-01
DAV:   2    -0.102322441371E+03   -0.19134E-02   -0.19544E-02   132   0.481E-01    0.140E-01
DAV:   3    -0.102322393389E+03    0.47982E-04   -0.45500E-04   144   0.844E-02    0.719E-02
DAV:   4    -0.102322388180E+03    0.52096E-05   -0.17449E-04   132   0.529E-02    0.135E-02
DAV:   5    -0.102322378009E+03    0.10171E-04   -0.37211E-05   132   0.238E-02    0.890E-03
DAV:   6    -0.102322379562E+03   -0.15534E-05   -0.78876E-06   132   0.942E-03    0.557E-03
DAV:   7    -0.102322392151E+03   -0.12588E-04   -0.17379E-06   120   0.622E-03    0.206E-03
DAV:   8    -0.102322408660E+03   -0.16510E-04   -0.23270E-06   132   0.609E-03    0.173E-03
DAV:   9    -0.102322425218E+03   -0.16558E-04   -0.11289E-06   120   0.370E-03    0.136E-03
DAV:  10    -0.102322435181E+03   -0.99632E-05   -0.33325E-07   108   0.150E-03    0.815E-04
DAV:  11    -0.102322447885E+03   -0.12703E-04   -0.59624E-07   108   0.161E-03    0.310E-04
DAV:  12    -0.102322453956E+03   -0.60710E-05   -0.19262E-07   108   0.904E-04    0.263E-04
DAV:  13    -0.102322459768E+03   -0.58126E-05   -0.15241E-07   108   0.761E-04    0.146E-04
DAV:  14    -0.102322462259E+03   -0.24906E-05   -0.47539E-08   108   0.484E-04    0.106E-04
DAV:  15    -0.102322463737E+03   -0.14780E-05   -0.18207E-08   108   0.358E-04    0.974E-05
DAV:  16    -0.102322464225E+03   -0.48851E-06    0.23293E-10   120   0.191E-04
  19 F= -.10232246E+03 E0= -.10232246E+03  d E =-.778523E-10
       N       E                     dE             d eps       ncg     rms          rms(c)
DAV:   1    -0.102320714749E+03    0.17490E-02   -0.16735E-01    96   0.129E+00    0.152E-01
DAV:   2    -0.102322015093E+03   -0.13003E-02   -0.13441E-02   132   0.402E-01    0.111E-01
DAV:   3    -0.102321960530E+03    0.54563E-04   -0.31148E-04   144   0.713E-02    0.643E-02
DAV:   4    -0.102321941533E+03    0.18997E-04   -0.14730E-04   132   0.492E-02    0.104E-02
DAV:   5    -0.102321936236E+03    0.52977E-05   -0.40750E-05   144   0.232E-02    0.844E-03
DAV:   6    -0.102321936633E+03   -0.39758E-06   -0.49258E-06   132   0.761E-03
  20 F= -.10232194E+03 E0= -.10232194E+03  d E =-.744423E-10
       N       E                     dE             d eps       ncg     rms          rms(c)
DAV:   1    -0.102319623801E+03    0.23124E-02   -0.33642E-01    96   0.171E+00    0.246E-01
DAV:   2    -0.102321990575E+03   -0.23668E-02   -0.24937E-02   132   0.518E-01    0.161E-01
DAV:   3    -0.102321862343E+03    0.12823E-03   -0.63609E-04   132   0.104E-01    0.830E-02
DAV:   4    -0.102321881266E+03   -0.18923E-04   -0.39079E-04   132   0.708E-02    0.163E-02
DAV:   5    -0.102321873665E+03    0.76018E-05   -0.65572E-05   144   0.292E-02    0.117E-02
DAV:   6    -0.102321872902E+03    0.76239E-06   -0.11209E-05   144   0.945E-03    0.733E-03
DAV:   7    -0.102321879604E+03   -0.67017E-05   -0.82603E-07   108   0.345E-03    0.327E-03
DAV:   8    -0.102321892165E+03   -0.12561E-04   -0.18685E-06   132   0.480E-03    0.126E-03
DAV:   9    -0.102321901784E+03   -0.96191E-05   -0.88687E-07   120   0.262E-03    0.142E-03
DAV:  10    -0.102321915118E+03   -0.13334E-04   -0.58997E-07    96   0.182E-03    0.623E-04
DAV:  11    -0.102321920168E+03   -0.50495E-05   -0.24487E-07   108   0.108E-03    0.434E-04
DAV:  12    -0.102321925696E+03   -0.55285E-05   -0.14799E-07   108   0.886E-04    0.180E-04
DAV:  13    -0.102321928646E+03   -0.29502E-05   -0.81597E-08   108   0.586E-04    0.167E-04
DAV:  14    -0.102321930833E+03   -0.21863E-05   -0.34739E-08   108   0.427E-04    0.900E-05
DAV:  15    -0.102321931586E+03   -0.75286E-06   -0.60868E-09   108   0.250E-04
  21 F= -.10232193E+03 E0= -.10232193E+03  d E =-.637214E-10
       N       E                     dE             d eps       ncg     rms          rms(c)
DAV:   1    -0.102322150566E+03   -0.21973E-03   -0.16856E-01    96   0.121E+00    0.158E-01
DAV:   2    -0.102323162787E+03   -0.10122E-02   -0.10737E-02   132   0.346E-01    0.103E-01
DAV:   3    -0.102323111813E+03    0.50975E-04   -0.28228E-04   132   0.676E-02    0.559E-02
DAV:   4    -0.102323112008E+03   -0.19567E-06   -0.13468E-04   132   0.422E-02    0.121E-02
DAV:   5    -0.102323108081E+03    0.39279E-05   -0.20805E-05   132   0.168E-02    0.744E-03
DAV:   6    -0.102323109388E+03   -0.13073E-05   -0.39338E-06   132   0.631E-03    0.472E-03
DAV:   7    -0.102323116776E+03   -0.73881E-05   -0.65910E-07   108   0.295E-03    0.154E-03
DAV:   8    -0.102323124234E+03   -0.74583E-05   -0.59199E-07   120   0.233E-03    0.762E-04
DAV:   9    -0.102323133184E+03   -0.89501E-05   -0.58137E-07   120   0.201E-03    0.660E-04
DAV:  10    -0.102323141973E+03   -0.87889E-05   -0.67028E-07   120   0.179E-03    0.376E-04
DAV:  11    -0.102323144363E+03   -0.23897E-05   -0.69439E-08   120   0.782E-04    0.257E-04
DAV:  12    -0.102323146780E+03   -0.24170E-05   -0.70640E-08   108   0.600E-04    0.120E-04
DAV:  13    -0.102323148351E+03   -0.15713E-05   -0.46377E-08   108   0.449E-04    0.116E-04
DAV:  14    -0.102323149228E+03   -0.87682E-06   -0.12637E-08   120   0.279E-04
  22 F= -.10232315E+03 E0= -.10232315E+03  d E =-.116713E-10
       N       E                     dE             d eps       ncg     rms          rms(c)
DAV:   1    -0.102321792943E+03    0.13554E-02   -0.33298E-01    96   0.165E+00    0.194E-01
DAV:   2    -0.102323259375E+03   -0.14664E-02   -0.15458E-02   132   0.413E-01    0.103E-01
DAV:   3    -0.102323242068E+03    0.17307E-04   -0.46435E-04   132   0.836E-02    0.497E-02
DAV:   4    -0.102323255102E+03   -0.13034E-04   -0.11074E-04   132   0.410E-02    0.140E-02
DAV:   5    -0.102323251445E+03    0.36568E-05   -0.20178E-05   132   0.180E-02    0.712E-03
DAV:   6    -0.102323253138E+03   -0.16930E-05   -0.64872E-06   132   0.858E-03    0.362E-03
DAV:   7    -0.102323257377E+03   -0.42388E-05   -0.58774E-07   108   0.294E-03    0.148E-03
DAV:   8    -0.102323262907E+03   -0.55300E-05   -0.40343E-07   108   0.254E-03    0.741E-04
DAV:   9    -0.102323269352E+03   -0.64452E-05   -0.37218E-07   108   0.214E-03    0.438E-04
DAV:  10    -0.102323275833E+03   -0.64813E-05   -0.46828E-07   108   0.203E-03    0.245E-04
DAV:  11    -0.102323278378E+03   -0.25454E-05   -0.12747E-07   108   0.118E-03    0.242E-04
DAV:  12    -0.102323280236E+03   -0.18576E-05   -0.39917E-08   108   0.568E-04    0.156E-04
DAV:  13    -0.102323281931E+03   -0.16950E-05   -0.40198E-08   108   0.437E-04    0.760E-05
DAV:  14    -0.102323283125E+03   -0.11938E-05   -0.25769E-08   108   0.341E-04    0.663E-05
DAV:  15    -0.102323283626E+03   -0.50157E-06   -0.19573E-09   108   0.193E-04
  23 F= -.10232328E+03 E0= -.10232328E+03  d E =-.247410E-10
       N       E                     dE             d eps       ncg     rms          rms(c)
DAV:   1    -0.102322171969E+03    0.11112E-02   -0.16821E-01    96   0.118E+00    0.149E-01
DAV:   2    -0.102322955480E+03   -0.78351E-03   -0.83017E-03   132   0.304E-01    0.766E-02
DAV:   3    -0.102322938822E+03    0.16658E-04   -0.25054E-04   144   0.610E-02    0.392E-02
DAV:   4    -0.102322946053E+03   -0.72314E-05   -0.68807E-05   132   0.319E-02    0.104E-02
DAV:   5    -0.102322944376E+03    0.16778E-05   -0.13000E-05   144   0.141E-02    0.611E-03
DAV:   6    -0.102322944850E+03   -0.47462E-06   -0.30070E-06   132   0.596E-03
  24 F= -.10232294E+03 E0= -.10232294E+03  d E =-.443333E-10
       N       E                     dE             d eps       ncg     rms          rms(c)
DAV:   1    -0.102321104327E+03    0.18400E-02   -0.34135E-01    96   0.169E+00    0.270E-01
DAV:   2    -0.102322671837E+03   -0.15675E-02   -0.17059E-02   132   0.445E-01    0.124E-01
DAV:   3    -0.102322619839E+03    0.51999E-04   -0.53494E-04   144   0.880E-02    0.734E-02
DAV:   4    -0.102322632474E+03   -0.12636E-04   -0.16745E-04   132   0.487E-02    0.189E-02
DAV:   5    -0.102322629357E+03    0.31173E-05   -0.32147E-05   144   0.212E-02    0.938E-03
DAV:   6    -0.102322629211E+03    0.14564E-06   -0.44106E-06   144   0.739E-03
  25 F= -.10232263E+03 E0= -.10232263E+03  d E =-.459981E-11
       N       E                     dE             d eps       ncg     rms          rms(c)
DAV:   1    -0.102321976539E+03    0.65282E-03   -0.17004E-01    96   0.124E+00    0.171E-01
DAV:   2    -0.102322966230E+03   -0.98969E-03   -0.10483E-02   132   0.349E-01    0.874E-02
DAV:   3    -0.102322935988E+03    0.30242E-04   -0.32680E-04   144   0.702E-02    0.473E-02
DAV:   4    -0.102322949819E+03   -0.13831E-04   -0.10485E-04   132   0.387E-02    0.116E-02
DAV:   5    -0.102322950264E+03   -0.44486E-06   -0.21397E-05   132   0.171E-02    0.739E-03
DAV:   6    -0.102322950628E+03   -0.36409E-06   -0.30437E-06   144   0.603E-03
  26 F= -.10232295E+03 E0= -.10232295E+03  d E =-.598742E-10
       N       E                     dE             d eps       ncg     rms          rms(c)
DAV:   1    -0.102321097482E+03    0.18528E-02   -0.33713E-01    96   0.167E+00    0.220E-01
DAV:   2    -0.102322775076E+03   -0.16776E-02   -0.17687E-02   132   0.443E-01    0.124E-01
DAV:   3    -0.102322730269E+03    0.44807E-04   -0.52305E-04   144   0.886E-02    0.679E-02
DAV:   4    -0.102322741533E+03   -0.11264E-04   -0.17605E-04   132   0.506E-02    0.164E-02
DAV:   5    -0.102322735344E+03    0.61897E-05   -0.35652E-05   132   0.226E-02    0.953E-03
DAV:   6    -0.102322735383E+03   -0.39675E-07   -0.63183E-06   144   0.835E-03
  27 F= -.10232274E+03 E0= -.10232274E+03  d E =-.697083E-10
       N       E                     dE             d eps       ncg     rms          rms(c)
DAV:   1    -0.102321115413E+03    0.16199E-02   -0.16859E-01    96   0.119E+00    0.170E-01
DAV:   2    -0.102322223479E+03   -0.11081E-02   -0.11715E-02   132   0.353E-01    0.111E-01
DAV:   3    -0.102322164779E+03    0.58699E-04   -0.31590E-04   132   0.724E-02    0.563E-02
DAV:   4    -0.102322178935E+03   -0.14156E-04   -0.18467E-04   132   0.474E-02    0.115E-02
DAV:   5    -0.102322174114E+03    0.48211E-05   -0.26974E-05   132   0.188E-02    0.811E-03
DAV:   6    -0.102322172771E+03    0.13427E-05   -0.52204E-06   132   0.651E-03    0.491E-03
DAV:   7    -0.102322174867E+03   -0.20954E-05   -0.43239E-07   108   0.250E-03    0.193E-03
DAV:   8    -0.102322179024E+03   -0.41575E-05   -0.57015E-07   108   0.273E-03    0.697E-04
DAV:   9    -0.102322183918E+03   -0.48940E-05   -0.48117E-07   120   0.181E-03    0.905E-04
DAV:  10    -0.102322190667E+03   -0.67491E-05   -0.31905E-07   108   0.139E-03    0.342E-04
DAV:  11    -0.102322192307E+03   -0.16401E-05   -0.64063E-08   108   0.656E-04    0.243E-04
DAV:  12    -0.102322195127E+03   -0.28196E-05   -0.62836E-08   108   0.574E-04    0.107E-04
DAV:  13    -0.102322196940E+03   -0.18130E-05   -0.48631E-08   108   0.443E-04    0.118E-04
DAV:  14    -0.102322198142E+03   -0.12016E-05   -0.12811E-08   108   0.287E-04    0.653E-05
DAV:  15    -0.102322198609E+03   -0.46712E-06    0.46509E-10   108   0.172E-04
  28 F= -.10232220E+03 E0= -.10232220E+03  d E =-.674543E-10
       N       E                     dE             d eps       ncg     rms          rms(c)
DAV:   1    -0.102320254988E+03    0.19432E-02   -0.34272E-01    96   0.167E+00    0.267E-01
DAV:   2    -0.102322241521E+03   -0.19865E-02   -0.21329E-02   120   0.485E-01    0.151E-01
DAV:   3    -0.102322125925E+03    0.11560E-03   -0.63563E-04   132   0.988E-02    0.858E-02
DAV:   4    -0.102322121195E+03    0.47302E-05   -0.28559E-04   132   0.615E-02    0.180E-02
DAV:   5    -0.102322115227E+03    0.59679E-05   -0.50804E-05   132   0.253E-02    0.119E-02
DAV:   6    -0.102322117286E+03   -0.20597E-05   -0.74606E-06   132   0.854E-03    0.767E-03
DAV:   7    -0.102322132573E+03   -0.15286E-04   -0.20005E-06   132   0.475E-03    0.208E-03
DAV:   8    -0.102322144587E+03   -0.12014E-04   -0.75642E-07   120   0.273E-03    0.109E-03
DAV:   9    -0.102322161675E+03   -0.17088E-04   -0.12619E-06   132   0.259E-03    0.945E-04
DAV:  10    -0.102322174591E+03   -0.12916E-04   -0.92850E-07   120   0.204E-03    0.616E-04
DAV:  11    -0.102322181991E+03   -0.74000E-05   -0.37317E-07   108   0.132E-03    0.327E-04
DAV:  12    -0.102322187224E+03   -0.52328E-05   -0.25906E-07   108   0.991E-04    0.159E-04
DAV:  13    -0.102322189428E+03   -0.22048E-05   -0.69718E-08   108   0.537E-04    0.168E-04
DAV:  14    -0.102322190507E+03   -0.10788E-05   -0.12618E-08   108   0.308E-04    0.679E-05
DAV:  15    -0.102322190920E+03   -0.41334E-06    0.33461E-10   108   0.172E-04
  29 F= -.10232219E+03 E0= -.10232219E+03  d E =-.642179E-10
       N       E                     dE             d eps       ncg     rms          rms(c)
DAV:   1    -0.102322074510E+03    0.11600E-03   -0.16920E-01    96   0.120E+00    0.176E-01
DAV:   2    -0.102323160780E+03   -0.10863E-02   -0.11637E-02   120   0.347E-01    0.110E-01
DAV:   3    -0.102323090805E+03    0.69976E-04   -0.32839E-04   132   0.729E-02    0.567E-02
DAV:   4    -0.102323091318E+03   -0.51338E-06   -0.18134E-04   132   0.481E-02    0.115E-02
DAV:   5    -0.102323086833E+03    0.44849E-05   -0.29816E-05   132   0.198E-02    0.845E-03
DAV:   6    -0.102323086380E+03    0.45329E-06   -0.55366E-06   132   0.682E-03
  30 F= -.10232309E+03 E0= -.10232309E+03  d E =-.639042E-10
       N       E                     dE             d eps       ncg     rms          rms(c)
DAV:   1    -0.102321133183E+03    0.19537E-02   -0.33578E-01    96   0.163E+00    0.200E-01
DAV:   2    -0.102322726876E+03   -0.15937E-02   -0.16683E-02   120   0.443E-01    0.121E-01
DAV:   3    -0.102322714367E+03    0.12509E-04   -0.54539E-04   144   0.920E-02    0.650E-02
DAV:   4    -0.102322743583E+03   -0.29216E-04   -0.15500E-04   132   0.498E-02    0.152E-02
DAV:   5    -0.102322740045E+03    0.35379E-05   -0.32751E-05   132   0.217E-02    0.924E-03
DAV:   6    -0.102322738905E+03    0.11408E-05   -0.61273E-06   132   0.827E-03    0.561E-03
DAV:   7    -0.102322742311E+03   -0.34059E-05   -0.80957E-07   108   0.358E-03    0.188E-03
DAV:   8    -0.102322746123E+03   -0.38123E-05   -0.34413E-07   108   0.244E-03    0.750E-04
DAV:   9    -0.102322751981E+03   -0.58581E-05   -0.39138E-07   108   0.225E-03    0.590E-04
DAV:  10    -0.102322758528E+03   -0.65471E-05   -0.50775E-07   108   0.206E-03    0.376E-04
DAV:  11    -0.102322760110E+03   -0.15817E-05   -0.10236E-07   108   0.109E-03    0.295E-04
DAV:  12    -0.102322761093E+03   -0.98349E-06   -0.19099E-08   108   0.457E-04
  31 F= -.10232276E+03 E0= -.10232276E+03  d E =-.735014E-10
       N       E                     dE             d eps       ncg     rms          rms(c)
DAV:   1    -0.102320395892E+03    0.23642E-02   -0.16392E-01    96   0.127E+00    0.158E-01
DAV:   2    -0.102321658322E+03   -0.12624E-02   -0.13180E-02   132   0.392E-01    0.106E-01
DAV:   3    -0.102321609703E+03    0.48619E-04   -0.31055E-04   144   0.711E-02    0.593E-02
DAV:   4    -0.102321604555E+03    0.51482E-05   -0.14390E-04   132   0.479E-02    0.103E-02
DAV:   5    -0.102321599440E+03    0.51147E-05   -0.32593E-05   132   0.213E-02    0.776E-03
DAV:   6    -0.102321598529E+03    0.91140E-06   -0.42147E-06   132   0.715E-03
  32 F= -.10232160E+03 E0= -.10232160E+03  d E =-.490175E-10
       N       E                     dE             d eps       ncg     rms          rms(c)
DAV:   1    -0.102319745513E+03    0.18539E-02   -0.34771E-01    96   0.181E+00    0.246E-01
DAV:   2    -0.102321902484E+03   -0.21570E-02   -0.21708E-02   132   0.520E-01    0.163E-01
DAV:   3    -0.102321849998E+03    0.52487E-04   -0.51557E-04   132   0.917E-02    0.874E-02
DAV:   4    -0.102321833487E+03    0.16510E-04   -0.27981E-04   132   0.601E-02    0.153E-02
DAV:   5    -0.102321822175E+03    0.11312E-04   -0.40557E-05   132   0.235E-02    0.110E-02
DAV:   6    -0.102321824747E+03   -0.25719E-05   -0.13959E-05   132   0.120E-02    0.627E-03
DAV:   7    -0.102321845110E+03   -0.20362E-04   -0.40106E-06   132   0.703E-03    0.225E-03
DAV:   8    -0.102321866739E+03   -0.21629E-04   -0.17801E-06    96   0.432E-03    0.123E-03
DAV:   9    -0.102321891706E+03   -0.24967E-04   -0.25677E-06   108   0.396E-03    0.114E-03
DAV:  10    -0.102321909458E+03   -0.17752E-04   -0.15603E-06   120   0.277E-03    0.572E-04
DAV:  11    -0.102321917851E+03   -0.83933E-05   -0.42715E-07   108   0.147E-03    0.298E-04
DAV:  12    -0.102321922756E+03   -0.49049E-05   -0.26163E-07   108   0.102E-03    0.204E-04
DAV:  13    -0.102321924863E+03   -0.21066E-05   -0.58526E-08   108   0.552E-04    0.877E-05
DAV:  14    -0.102321925669E+03   -0.80580E-06   -0.89274E-09   108   0.305E-04
  33 F= -.10232193E+03 E0= -.10232193E+03  d E =-.442839E-11
       N       E                     dE             d eps       ncg     rms          rms(c)
DAV:   1    -0.102321960559E+03   -0.35696E-04   -0.16723E-01    96   0.123E+00    0.161E-01
DAV:   2    -0.102322972038E+03   -0.10115E-02   -0.10324E-02   132   0.347E-01    0.103E-01
DAV:   3    -0.102322943829E+03    0.28209E-04   -0.24663E-04   132   0.643E-02    0.521E-02
DAV:   4    -0.102322944713E+03   -0.88430E-06   -0.11954E-04   132   0.416E-02    0.103E-02
DAV:   5    -0.102322939157E+03    0.55557E-05   -0.22582E-05   132   0.182E-02    0.706E-03
DAV:   6    -0.102322939208E+03   -0.50935E-07   -0.52427E-06   132   0.713E-03
  34 F= -.10232294E+03 E0= -.10232294E+03  d E =-.455145E-11
       N       E                     dE             d eps       ncg     rms          rms(c)
DAV:   1    -0.102321520355E+03    0.14188E-02   -0.33518E-01    96   0.163E+00    0.228E-01
DAV:   2    -0.102323037356E+03   -0.15170E-02   -0.15531E-02   132   0.414E-01    0.118E-01
DAV:   3    -0.102323041715E+03   -0.43592E-05   -0.50185E-04   132   0.849E-02    0.609E-02
DAV:   4    -0.102323074163E+03   -0.32448E-04   -0.14735E-04   132   0.507E-02    0.138E-02
DAV:   5    -0.102323074333E+03   -0.16945E-06   -0.40283E-05   132   0.236E-02    0.102E-02
DAV:   6    -0.102323075393E+03   -0.10604E-05   -0.58696E-06   132   0.768E-03    0.644E-03
DAV:   7    -0.102323078907E+03   -0.35137E-05   -0.64762E-07   108   0.332E-03    0.277E-03
DAV:   8    -0.102323083547E+03   -0.46402E-05   -0.83504E-07   108   0.371E-03    0.106E-03
DAV:   9    -0.102323089574E+03   -0.60269E-05   -0.44091E-07   108   0.270E-03    0.707E-04
DAV:  10    -0.102323095826E+03   -0.62521E-05   -0.37871E-07   108   0.236E-03    0.605E-04
DAV:  11    -0.102323097829E+03   -0.20037E-05   -0.15716E-07   108   0.138E-03    0.543E-04
DAV:  12    -0.102323098949E+03   -0.11199E-05   -0.20347E-08   108   0.528E-04    0.395E-04
DAV:  13    -0.102323102066E+03   -0.31163E-05   -0.89666E-08   108   0.674E-04    0.881E-05
DAV:  14    -0.102323103467E+03   -0.14011E-05   -0.42641E-08   108   0.460E-04    0.216E-04
DAV:  15    -0.102323104231E+03   -0.76467E-06   -0.58664E-09   108   0.262E-04
  35 F= -.10232310E+03 E0= -.10232310E+03  d E =-.476544E-10
       N       E                     dE             d eps       ncg     rms          rms(c)
DAV:   1    -0.102320390297E+03    0.27132E-02   -0.16938E-01    96   0.122E+00    0.161E-01
DAV:   2    -0.102321319740E+03   -0.92944E-03   -0.95219E-03   132   0.337E-01    0.961E-02
DAV:   3    -0.102321299602E+03    0.20138E-04   -0.25552E-04   132   0.640E-02    0.494E-02
DAV:   4    -0.102321307269E+03   -0.76672E-05   -0.11153E-04   132   0.422E-02    0.103E-02
DAV:   5    -0.102321303262E+03    0.40067E-05   -0.25985E-05   132   0.192E-02    0.718E-03
DAV:   6    -0.102321302932E+03    0.33025E-06   -0.46073E-06   132   0.671E-03
  36 F= -.10232130E+03 E0= -.10232130E+03  d E =-.491704E-11
       N       E                     dE             d eps       ncg     rms          rms(c)
DAV:   1    -0.102319167925E+03    0.21353E-02   -0.35245E-01    96   0.180E+00    0.249E-01
DAV:   2    -0.102321604468E+03   -0.24365E-02   -0.24593E-02   132   0.549E-01    0.175E-01
DAV:   3    -0.102321508085E+03    0.96383E-04   -0.61898E-04   132   0.106E-01    0.835E-02
DAV:   4    -0.102321518527E+03   -0.10442E-04   -0.38639E-04   132   0.719E-02    0.168E-02
DAV:   5    -0.102321502959E+03    0.15567E-04   -0.63215E-05   132   0.291E-02    0.109E-02
DAV:   6    -0.102321507487E+03   -0.45272E-05   -0.14743E-05   144   0.107E-02    0.544E-03
DAV:   7    -0.102321526223E+03   -0.18737E-04   -0.14563E-06   120   0.392E-03    0.245E-03
DAV:   8    -0.102321551107E+03   -0.24884E-04   -0.35587E-06   132   0.528E-03    0.154E-03
DAV:   9    -0.102321570724E+03   -0.19616E-04   -0.18472E-06   120   0.341E-03    0.119E-03
DAV:  10    -0.102321584770E+03   -0.14046E-04   -0.11213E-06   120   0.239E-03    0.446E-04
DAV:  11    -0.102321590112E+03   -0.53427E-05   -0.19550E-07   108   0.116E-03    0.281E-04
DAV:  12    -0.102321596011E+03   -0.58981E-05   -0.33880E-07    96   0.115E-03    0.182E-04
DAV:  13    -0.102321597328E+03   -0.13170E-05   -0.37082E-08   120   0.459E-04    0.151E-04
DAV:  14    -0.102321598977E+03   -0.16490E-05   -0.40824E-08    84   0.457E-04    0.658E-05
DAV:  15    -0.102321599430E+03   -0.45308E-06   -0.52486E-09   120   0.244E-04
  37 F= -.10232160E+03 E0= -.10232160E+03  d E =-.454030E-10
       N       E                     dE             d eps       ncg     rms          rms(c)
DAV:   1    -0.102320612490E+03    0.98649E-03   -0.18363E-01    96   0.135E+00    0.168E-01
DAV:   2    -0.102321961299E+03   -0.13488E-02   -0.14528E-02   132   0.422E-01    0.114E-01
DAV:   3    -0.102321901349E+03    0.59949E-04   -0.27429E-04   144   0.672E-02    0.658E-02
DAV:   4    -0.102321890581E+03    0.10769E-04   -0.16613E-04   132   0.510E-02    0.107E-02
DAV:   5    -0.102321885126E+03    0.54545E-05   -0.43853E-05   132   0.241E-02    0.752E-03
DAV:   6    -0.102321882926E+03    0.22005E-05   -0.64626E-06   132   0.835E-03    0.504E-03
DAV:   7    -0.102321889946E+03   -0.70199E-05   -0.19525E-06   132   0.490E-03    0.199E-03
DAV:   8    -0.102321902237E+03   -0.12291E-04   -0.88637E-07   108   0.328E-03    0.883E-04
DAV:   9    -0.102321913088E+03   -0.10851E-04   -0.81906E-07   108   0.233E-03    0.113E-03
DAV:  10    -0.102321925271E+03   -0.12183E-04   -0.52516E-07    96   0.188E-03    0.266E-04
DAV:  11    -0.102321929596E+03   -0.43250E-05   -0.15741E-07   108   0.967E-04    0.264E-04
DAV:  12    -0.102321934395E+03   -0.47993E-05   -0.10306E-07   108   0.731E-04    0.112E-04
DAV:  13    -0.102321936210E+03   -0.18151E-05   -0.34979E-08   108   0.428E-04    0.977E-05
DAV:  14    -0.102321937631E+03   -0.14211E-05   -0.11515E-08   108   0.284E-04    0.509E-05
DAV:  15    -0.102321938419E+03   -0.78754E-06   -0.48163E-09   108   0.216E-04
  38 F= -.10232194E+03 E0= -.10232194E+03  d E =-.741940E-10
       N       E                     dE             d eps       ncg     rms          rms(c)
DAV:   1    -0.102320517548E+03    0.14201E-02   -0.40221E-01    96   0.186E+00    0.214E-01
DAV:   2    -0.102322032517E+03   -0.15150E-02   -0.18548E-02   132   0.449E-01    0.128E-01
DAV:   3    -0.102321915304E+03    0.11721E-03   -0.30643E-04   132   0.633E-02    0.659E-02
DAV:   4    -0.102321860145E+03    0.55160E-04   -0.12361E-04   132   0.423E-02    0.114E-02
DAV:   5    -0.102321853788E+03    0.63564E-05   -0.25068E-05   132   0.189E-02    0.731E-03
DAV:   6    -0.102321866726E+03   -0.12938E-04   -0.10613E-05   132   0.935E-03    0.415E-03
DAV:   7    -0.102321890670E+03   -0.23944E-04   -0.16590E-06   120   0.409E-03    0.213E-03
DAV:   8    -0.102321927387E+03   -0.36717E-04   -0.40083E-06   120   0.455E-03    0.123E-03
DAV:   9    -0.102321948234E+03   -0.20847E-04   -0.14586E-06   120   0.281E-03    0.915E-04
DAV:  10    -0.102321970455E+03   -0.22222E-04   -0.19776E-06   108   0.280E-03    0.337E-04
DAV:  11    -0.102321976824E+03   -0.63694E-05   -0.20466E-07   108   0.112E-03    0.332E-04
DAV:  12    -0.102321983653E+03   -0.68287E-05   -0.32053E-07   108   0.116E-03    0.132E-04
DAV:  13    -0.102321985155E+03   -0.15017E-05   -0.51155E-08   108   0.498E-04    0.111E-04
DAV:  14    -0.102321986586E+03   -0.14309E-05   -0.14932E-08   108   0.357E-04    0.477E-05
DAV:  15    -0.102321987231E+03   -0.64494E-06   -0.53395E-09   108   0.241E-04
  39 F= -.10232199E+03 E0= -.10232199E+03  d E =-.548242E-10
       N       E                     dE             d eps       ncg     rms          rms(c)
DAV:   1    -0.102321602805E+03    0.38378E-03   -0.20150E-01    96   0.132E+00    0.151E-01
DAV:   2    -0.102322333033E+03   -0.73023E-03   -0.89144E-03   120   0.301E-01    0.790E-02
DAV:   3    -0.102322290363E+03    0.42669E-04   -0.16834E-04   132   0.458E-02    0.409E-02
DAV:   4    -0.102322263560E+03    0.26804E-04   -0.44025E-05   132   0.259E-02    0.819E-03
DAV:   5    -0.102322256502E+03    0.70574E-05   -0.91115E-06   132   0.123E-02    0.492E-03
DAV:   6    -0.102322257517E+03   -0.10145E-05   -0.32055E-06   132   0.647E-03    0.273E-03
DAV:   7    -0.102322264752E+03   -0.72348E-05   -0.90718E-07   108   0.420E-03    0.125E-03
DAV:   8    -0.102322276285E+03   -0.11534E-04   -0.10203E-06   120   0.340E-03    0.957E-04
DAV:   9    -0.102322289969E+03   -0.13684E-04   -0.78929E-07   108   0.246E-03    0.455E-04
DAV:  10    -0.102322296822E+03   -0.68532E-05   -0.31469E-07   108   0.133E-03    0.336E-04
DAV:  11    -0.102322303139E+03   -0.63170E-05   -0.15874E-07   108   0.866E-04    0.179E-04
DAV:  12    -0.102322306375E+03   -0.32360E-05   -0.65864E-08   108   0.548E-04    0.108E-04
DAV:  13    -0.102322309108E+03   -0.27326E-05   -0.52136E-08   108   0.450E-04    0.584E-05
DAV:  14    -0.102322310036E+03   -0.92853E-06   -0.56829E-09   108   0.233E-04
  40 F= -.10232231E+03 E0= -.10232231E+03  d E =-.717068E-10
       N       E                     dE             d eps       ncg     rms          rms(c)
DAV:   1    -0.102320803456E+03    0.15057E-02   -0.40236E-01    96   0.186E+00    0.219E-01
DAV:   2    -0.102322370450E+03   -0.15670E-02   -0.19141E-02   132   0.437E-01    0.119E-01
DAV:   3    -0.102322267150E+03    0.10330E-03   -0.33379E-04   144   0.650E-02    0.630E-02
DAV:   4    -0.102322200253E+03    0.66898E-04   -0.93293E-05   132   0.377E-02    0.123E-02
DAV:   5    -0.102322193669E+03    0.65832E-05   -0.17698E-05   132   0.174E-02    0.728E-03
DAV:   6    -0.102322210007E+03   -0.16338E-04   -0.77909E-06   132   0.963E-03    0.388E-03
DAV:   7    -0.102322239839E+03   -0.29832E-04   -0.39635E-06   120   0.665E-03    0.197E-03
DAV:   8    -0.102322273997E+03   -0.34158E-04   -0.29880E-06   120   0.470E-03    0.121E-03
DAV:   9    -0.102322299349E+03   -0.25351E-04   -0.23819E-06   120   0.361E-03    0.826E-04
DAV:  10    -0.102322317371E+03   -0.18022E-04   -0.14637E-06   120   0.252E-03    0.427E-04
DAV:  11    -0.102322324522E+03   -0.71511E-05   -0.29402E-07   108   0.122E-03    0.289E-04
DAV:  12    -0.102322330164E+03   -0.56425E-05   -0.30974E-07   108   0.110E-03    0.164E-04
DAV:  13    -0.102322331703E+03   -0.15392E-05   -0.47217E-08   108   0.515E-04    0.864E-05
DAV:  14    -0.102322332720E+03   -0.10166E-05   -0.12771E-08   108   0.332E-04    0.498E-05
DAV:  15    -0.102322333072E+03   -0.35164E-06   -0.36321E-10   108   0.182E-04
  41 F= -.10232233E+03 E0= -.10232233E+03  d E =-.591727E-10
       N       E                     dE             d eps       ncg     rms          rms(c)
DAV:   1    -0.102322388667E+03   -0.55947E-04   -0.20160E-01    96   0.132E+00    0.151E-01
DAV:   2    -0.102323087152E+03   -0.69849E-03   -0.84604E-03   132   0.293E-01    0.735E-02
DAV:   3    -0.102323054653E+03    0.32499E-04   -0.18246E-04   144   0.484E-02    0.381E-02
DAV:   4    -0.102323041832E+03    0.12821E-04   -0.44354E-05   132   0.297E-02    0.899E-03
DAV:   5    -0.102323037925E+03    0.39076E-05   -0.13660E-05   132   0.144E-02    0.593E-03
DAV:   6    -0.102323038482E+03   -0.55709E-06   -0.24332E-06   132   0.517E-03
  42 F= -.10232304E+03 E0= -.10232304E+03  d E =-.780203E-10
       N       E                     dE             d eps       ncg     rms          rms(c)
DAV:   1    -0.102321686753E+03    0.13512E-02   -0.40668E-01    96   0.186E+00    0.221E-01
DAV:   2    -0.102323052780E+03   -0.13660E-02   -0.16397E-02   132   0.394E-01    0.991E-02
DAV:   3    -0.102322998175E+03    0.54605E-04   -0.35096E-04   132   0.662E-02    0.518E-02
DAV:   4    -0.102322980570E+03    0.17605E-04   -0.84791E-05   132   0.398E-02    0.125E-02
DAV:   5    -0.102322977151E+03    0.34190E-05   -0.25195E-05   132   0.196E-02    0.852E-03
DAV:   6    -0.102322979105E+03   -0.19537E-05   -0.41810E-06   132   0.732E-03    0.520E-03
DAV:   7    -0.102322986192E+03   -0.70870E-05   -0.80019E-07   108   0.430E-03    0.184E-03
DAV:   8    -0.102322995454E+03   -0.92624E-05   -0.99051E-07   120   0.382E-03    0.120E-03
DAV:   9    -0.102323011538E+03   -0.16084E-04   -0.11249E-06   120   0.348E-03    0.517E-04
DAV:  10    -0.102323017546E+03   -0.60082E-05   -0.35287E-07   108   0.191E-03    0.525E-04
DAV:  11    -0.102323020671E+03   -0.31246E-05   -0.70442E-08   108   0.868E-04    0.386E-04
DAV:  12    -0.102323026881E+03   -0.62100E-05   -0.21356E-07   108   0.100E-03    0.200E-04
DAV:  13    -0.102323028545E+03   -0.16646E-05   -0.39135E-08   108   0.476E-04    0.207E-04
DAV:  14    -0.102323030501E+03   -0.19561E-05   -0.33804E-08   108   0.434E-04    0.627E-05
DAV:  15    -0.102323031114E+03   -0.61246E-06   -0.56396E-09   108   0.246E-04
  43 F= -.10232303E+03 E0= -.10232303E+03  d E =-.555097E-10
       N       E                     dE             d eps       ncg     rms          rms(c)
DAV:   1    -0.102321951623E+03    0.10789E-02   -0.19837E-01    96   0.131E+00    0.153E-01
DAV:   2    -0.102322999568E+03   -0.10479E-02   -0.12497E-02   132   0.316E-01    0.730E-02
DAV:   3    -0.102322965227E+03    0.34342E-04   -0.27753E-04   144   0.555E-02    0.404E-02
DAV:   4    -0.102322943851E+03    0.21375E-04   -0.50550E-05   144   0.314E-02    0.104E-02
DAV:   5    -0.102322938319E+03    0.55326E-05   -0.16708E-05   144   0.159E-02    0.626E-03
DAV:   6    -0.102322939076E+03   -0.75724E-06   -0.23669E-06   132   0.588E-03
  44 F= -.10232294E+03 E0= -.10232294E+03  d E =-.113739E-10
       N       E                     dE             d eps       ncg     rms          rms(c)
DAV:   1    -0.102321642164E+03    0.12962E-02   -0.40490E-01   108   0.168E+00    0.191E-01
DAV:   2    -0.102323123188E+03   -0.14810E-02   -0.17466E-02   120   0.378E-01    0.986E-02
DAV:   3    -0.102323071013E+03    0.52175E-04   -0.36399E-04   144   0.686E-02    0.516E-02
DAV:   4    -0.102323049462E+03    0.21551E-04   -0.10388E-04   132   0.410E-02    0.114E-02
DAV:   5    -0.102323044202E+03    0.52603E-05   -0.23097E-05   144   0.182E-02    0.765E-03
DAV:   6    -0.102323046190E+03   -0.19884E-05   -0.43823E-06   132   0.711E-03    0.411E-03
DAV:   7    -0.102323053483E+03   -0.72926E-05   -0.10272E-06   120   0.369E-03    0.145E-03
DAV:   8    -0.102323061638E+03   -0.81556E-05   -0.57647E-07   120   0.259E-03    0.865E-04
DAV:   9    -0.102323073241E+03   -0.11603E-04   -0.86918E-07   120   0.249E-03    0.458E-04
DAV:  10    -0.102323081481E+03   -0.82402E-05   -0.69825E-07   120   0.193E-03    0.321E-04
DAV:  11    -0.102323084400E+03   -0.29189E-05   -0.80143E-08   108   0.912E-04    0.191E-04
DAV:  12    -0.102323087228E+03   -0.28278E-05   -0.11761E-07   108   0.737E-04    0.111E-04
DAV:  13    -0.102323088494E+03   -0.12665E-05   -0.33662E-08   108   0.408E-04    0.729E-05
DAV:  14    -0.102323089308E+03   -0.81353E-06   -0.99655E-09   108   0.266E-04
  45 F= -.10232309E+03 E0= -.10232309E+03  d E =-.246688E-10
       N       E                     dE             d eps       ncg     rms          rms(c)
DAV:   1    -0.102322076612E+03    0.10119E-02   -0.20479E-01    96   0.124E+00    0.145E-01
DAV:   2    -0.102322688660E+03   -0.61205E-03   -0.73961E-03   120   0.254E-01    0.608E-02
DAV:   3    -0.102322662481E+03    0.26179E-04   -0.17690E-04   144   0.472E-02    0.319E-02
DAV:   4    -0.102322653035E+03    0.94458E-05   -0.39022E-05   132   0.261E-02    0.825E-03
DAV:   5    -0.102322650728E+03    0.23066E-05   -0.10349E-05   132   0.128E-02    0.524E-03
DAV:   6    -0.102322650771E+03   -0.42683E-07   -0.19301E-06   120   0.511E-03
  46 F= -.10232265E+03 E0= -.10232265E+03  d E =-.609962E-11
       N       E                     dE             d eps       ncg     rms          rms(c)
DAV:   1    -0.102320775703E+03    0.18750E-02   -0.39699E-01    96   0.173E+00    0.216E-01
DAV:   2    -0.102322307190E+03   -0.15315E-02   -0.18506E-02   132   0.397E-01    0.117E-01
DAV:   3    -0.102322194900E+03    0.11229E-03   -0.32953E-04   132   0.668E-02    0.595E-02
DAV:   4    -0.102322160291E+03    0.34609E-04   -0.13207E-04   132   0.433E-02    0.125E-02
DAV:   5    -0.102322149228E+03    0.11063E-04   -0.22846E-05   132   0.182E-02    0.731E-03
DAV:   6    -0.102322150165E+03   -0.93644E-06   -0.57289E-06   132   0.719E-03
  47 F= -.10232215E+03 E0= -.10232215E+03  d E =-.413515E-10
       N       E                     dE             d eps       ncg     rms          rms(c)
DAV:   1    -0.102322765143E+03   -0.61591E-03   -0.20153E-01    96   0.123E+00    0.159E-01
DAV:   2    -0.102323496626E+03   -0.73148E-03   -0.85879E-03   132   0.274E-01    0.707E-02
DAV:   3    -0.102323474395E+03    0.22230E-04   -0.17718E-04   144   0.470E-02    0.374E-02
DAV:   4    -0.102323481655E+03   -0.72601E-05   -0.47347E-05   132   0.274E-02    0.906E-03
DAV:   5    -0.102323483770E+03   -0.21145E-05   -0.10801E-05   132   0.128E-02    0.533E-03
DAV:   6    -0.102323485141E+03   -0.13710E-05   -0.19897E-06   120   0.516E-03    0.285E-03
DAV:   7    -0.102323487493E+03   -0.23517E-05   -0.43819E-07   108   0.260E-03    0.104E-03
DAV:   8    -0.102323489686E+03   -0.21938E-05   -0.23493E-07   108   0.191E-03    0.478E-04
DAV:   9    -0.102323492754E+03   -0.30680E-05   -0.20388E-07   108   0.162E-03    0.290E-04
DAV:  10    -0.102323495023E+03   -0.22686E-05   -0.15430E-07   108   0.117E-03    0.204E-04
DAV:  11    -0.102323496123E+03   -0.10995E-05   -0.30191E-08   108   0.605E-04    0.161E-04
DAV:  12    -0.102323497332E+03   -0.12099E-05   -0.31047E-08   108   0.464E-04    0.707E-05
DAV:  13    -0.102323497876E+03   -0.54372E-06   -0.92136E-09   108   0.274E-04
  48 F= -.10232350E+03 E0= -.10232350E+03  d E =-.390837E-10
       N       E                     dE             d eps       ncg     rms          rms(c)
DAV:   1    -0.102322058960E+03    0.14384E-02   -0.40922E-01    96   0.173E+00    0.217E-01
DAV:   2    -0.102323242145E+03   -0.11832E-02   -0.14482E-02   132   0.366E-01    0.857E-02
DAV:   3    -0.102323185481E+03    0.56663E-04   -0.33867E-04   132   0.654E-02    0.446E-02
DAV:   4    -0.102323168999E+03    0.16482E-04   -0.73249E-05   132   0.368E-02    0.127E-02
DAV:   5    -0.102323166222E+03    0.27778E-05   -0.20341E-05   132   0.180E-02    0.767E-03
DAV:   6    -0.102323167221E+03   -0.99941E-06   -0.36835E-06   132   0.685E-03
  49 F= -.10232317E+03 E0= -.10232317E+03  d E =-.666614E-11
       N       E                     dE             d eps       ncg     rms          rms(c)
DAV:   1    -0.102322234398E+03    0.93182E-03   -0.22206E-01    96   0.133E+00    0.155E-01
DAV:   2    -0.102323193087E+03   -0.95869E-03   -0.10876E-02   120   0.291E-01    0.666E-02
DAV:   3    -0.102323180430E+03    0.12657E-04   -0.24756E-04   144   0.542E-02    0.346E-02
DAV:   4    -0.102323185554E+03   -0.51242E-05   -0.57029E-05   144   0.289E-02    0.935E-03
DAV:   5    -0.102323187041E+03   -0.14869E-05   -0.10766E-05   132   0.122E-02    0.587E-03
DAV:   6    -0.102323189712E+03   -0.26705E-05   -0.20743E-06   120   0.509E-03    0.281E-03
DAV:   7    -0.102323194022E+03   -0.43102E-05   -0.51909E-07   108   0.269E-03    0.870E-04
DAV:   8    -0.102323198183E+03   -0.41616E-05   -0.24590E-07   108   0.179E-03    0.570E-04
DAV:   9    -0.102323203335E+03   -0.51518E-05   -0.30930E-07   108   0.167E-03    0.242E-04
DAV:  10    -0.102323206553E+03   -0.32179E-05   -0.23308E-07   108   0.125E-03    0.201E-04
DAV:  11    -0.102323207915E+03   -0.13622E-05   -0.47935E-08   108   0.658E-04    0.154E-04
DAV:  12    -0.102323208990E+03   -0.10747E-05   -0.25589E-08   108   0.428E-04    0.768E-05
DAV:  13    -0.102323209692E+03   -0.70152E-06   -0.16000E-08   108   0.311E-04
  50 F= -.10232321E+03 E0= -.10232321E+03  d E =-.414719E-10
       N       E                     dE             d eps       ncg     rms          rms(c)
DAV:   1    -0.102321710876E+03    0.14981E-02   -0.40844E-01    96   0.175E+00    0.193E-01
DAV:   2    -0.102323150668E+03   -0.14398E-02   -0.17211E-02   120   0.376E-01    0.926E-02
DAV:   3    -0.102323114061E+03    0.36608E-04   -0.34969E-04   156   0.647E-02    0.492E-02
DAV:   4    -0.102323089446E+03    0.24615E-04   -0.69507E-05   132   0.410E-02    0.982E-03
DAV:   5    -0.102323085019E+03    0.44266E-05   -0.30943E-05   132   0.211E-02    0.781E-03
DAV:   6    -0.102323085831E+03   -0.81179E-06   -0.40417E-06   132   0.666E-03
  51 F= -.10232309E+03 E0= -.10232309E+03  d E =-.964960E-11
       N       E                     dE             d eps       ncg     rms          rms(c)
DAV:   1    -0.102321602065E+03    0.14830E-02   -0.20139E-01    96   0.128E+00    0.138E-01
DAV:   2    -0.102322395466E+03   -0.79340E-03   -0.93513E-03   120   0.299E-01    0.821E-02
DAV:   3    -0.102322373512E+03    0.21954E-04   -0.15544E-04   144   0.417E-02    0.433E-02
DAV:   4    -0.102322348046E+03    0.25465E-04   -0.47182E-05   132   0.254E-02    0.734E-03
DAV:   5    -0.102322341598E+03    0.64483E-05   -0.89835E-06   132   0.119E-02    0.435E-03
DAV:   6    -0.102322345814E+03   -0.42157E-05   -0.36952E-06   132   0.634E-03    0.244E-03
DAV:   7    -0.102322356053E+03   -0.10240E-04   -0.12024E-06   120   0.381E-03    0.126E-03
DAV:   8    -0.102322369065E+03   -0.13012E-04   -0.10034E-06   120   0.276E-03    0.711E-04
DAV:   9    -0.102322379347E+03   -0.10282E-04   -0.78033E-07   120   0.210E-03    0.557E-04
DAV:  10    -0.102322388694E+03   -0.93476E-05   -0.71518E-07   120   0.171E-03    0.244E-04
DAV:  11    -0.102322391859E+03   -0.31646E-05   -0.11468E-07   108   0.768E-04    0.211E-04
DAV:  12    -0.102322395056E+03   -0.31968E-05   -0.17425E-07   108   0.832E-04    0.956E-05
DAV:  13    -0.102322395703E+03   -0.64692E-06   -0.18090E-08   108   0.351E-04
  52 F= -.10232240E+03 E0= -.10232240E+03  d E =-.398134E-10
       N       E                     dE             d eps       ncg     rms          rms(c)
DAV:   1    -0.102320889062E+03    0.15060E-02   -0.40370E-01    96   0.185E+00    0.219E-01
DAV:   2    -0.102322344123E+03   -0.14551E-02   -0.17893E-02   132   0.434E-01    0.113E-01
DAV:   3    -0.102322249738E+03    0.94385E-04   -0.29299E-04   132   0.593E-02    0.585E-02
DAV:   4    -0.102322190064E+03    0.59674E-04   -0.88808E-05   132   0.361E-02    0.113E-02
DAV:   5    -0.102322177412E+03    0.12652E-04   -0.16971E-05   132   0.172E-02    0.657E-03
DAV:   6    -0.102322181655E+03   -0.42424E-05   -0.78398E-06   132   0.970E-03    0.353E-03
DAV:   7    -0.102322197498E+03   -0.15844E-04   -0.23055E-06   132   0.579E-03    0.195E-03
DAV:   8    -0.102322220956E+03   -0.23457E-04   -0.14772E-06   120   0.394E-03    0.116E-03
DAV:   9    -0.102322241950E+03   -0.20995E-04   -0.13070E-06   120   0.293E-03    0.844E-04
DAV:  10    -0.102322260326E+03   -0.18376E-04   -0.77871E-07   108   0.199E-03    0.370E-04
DAV:  11    -0.102322269437E+03   -0.91103E-05   -0.31267E-07   108   0.115E-03    0.283E-04
DAV:  12    -0.102322277895E+03   -0.84585E-05   -0.23223E-07   108   0.957E-04    0.131E-04
DAV:  13    -0.102322280264E+03   -0.23692E-05   -0.39105E-08   108   0.461E-04    0.868E-05
DAV:  14    -0.102322282006E+03   -0.17419E-05   -0.16646E-08   108   0.315E-04    0.453E-05
DAV:  15    -0.102322282693E+03   -0.68637E-06   -0.75826E-10   108   0.193E-04
  53 F= -.10232228E+03 E0= -.10232228E+03  d E =-.594691E-11
       N       E                     dE             d eps       ncg     rms          rms(c)
DAV:   1    -0.102320985211E+03    0.12968E-02   -0.20188E-01   120   0.127E+00    0.155E-01
DAV:   2    -0.102321786655E+03   -0.80144E-03   -0.98434E-03   132   0.328E-01    0.892E-02
DAV:   3    -0.102321728003E+03    0.58653E-04   -0.15887E-04   132   0.448E-02    0.471E-02
DAV:   4    -0.102321696391E+03    0.31612E-04   -0.64455E-05   132   0.314E-02    0.795E-03
DAV:   5    -0.102321691995E+03    0.43960E-05   -0.13837E-05   132   0.138E-02    0.562E-03
DAV:   6    -0.102321696882E+03   -0.48876E-05   -0.50669E-06   132   0.651E-03    0.323E-03
DAV:   7    -0.102321708879E+03   -0.11997E-04   -0.77397E-07   108   0.291E-03    0.157E-03
DAV:   8    -0.102321729280E+03   -0.20401E-04   -0.22464E-06   120   0.335E-03    0.102E-03
DAV:   9    -0.102321743052E+03   -0.13773E-04   -0.84825E-07   108   0.223E-03    0.685E-04
DAV:  10    -0.102321755053E+03   -0.12001E-04   -0.10302E-06   120   0.195E-03    0.273E-04
DAV:  11    -0.102321760747E+03   -0.56935E-05   -0.22451E-07   108   0.112E-03    0.286E-04
DAV:  12    -0.102321763163E+03   -0.24162E-05   -0.70036E-08   108   0.611E-04    0.172E-04
DAV:  13    -0.102321764686E+03   -0.15235E-05   -0.34165E-08   108   0.431E-04    0.743E-05
DAV:  14    -0.102321765411E+03   -0.72446E-06   -0.37989E-09   108   0.255E-04
  54 F= -.10232177E+03 E0= -.10232177E+03  d E =-.551610E-11
       N       E                     dE             d eps       ncg     rms          rms(c)
DAV:   1    -0.102320448838E+03    0.13158E-02   -0.40326E-01   108   0.183E+00    0.207E-01
DAV:   2    -0.102321975942E+03   -0.15271E-02   -0.19076E-02   120   0.453E-01    0.128E-01
DAV:   3    -0.102321857632E+03    0.11831E-03   -0.29245E-04   132   0.623E-02    0.672E-02
DAV:   4    -0.102321798712E+03    0.58919E-04   -0.13350E-04   132   0.445E-02    0.111E-02
DAV:   5    -0.102321796510E+03    0.22025E-05   -0.26784E-05   132   0.199E-02    0.744E-03
DAV:   6    -0.102321814393E+03   -0.17883E-04   -0.12198E-05   132   0.993E-03    0.413E-03
DAV:   7    -0.102321842298E+03   -0.27905E-04   -0.18627E-06   120   0.427E-03    0.214E-03
DAV:   8    -0.102321885167E+03   -0.42869E-04   -0.51145E-06   120   0.507E-03    0.134E-03
DAV:   9    -0.102321907823E+03   -0.22656E-04   -0.16821E-06   120   0.302E-03    0.879E-04
DAV:  10    -0.102321929652E+03   -0.21829E-04   -0.20381E-06   120   0.286E-03    0.370E-04
DAV:  11    -0.102321937207E+03   -0.75558E-05   -0.28536E-07   108   0.126E-03    0.320E-04
DAV:  12    -0.102321943409E+03   -0.62014E-05   -0.33984E-07   108   0.115E-03    0.135E-04
DAV:  13    -0.102321944753E+03   -0.13440E-05   -0.36557E-08   120   0.461E-04    0.913E-05
DAV:  14    -0.102321946090E+03   -0.13369E-05   -0.17710E-08   108   0.354E-04    0.575E-05
DAV:  15    -0.102321946554E+03   -0.46403E-06   -0.11507E-09   108   0.196E-04
  55 F= -.10232195E+03 E0= -.10232195E+03  d E =-.385495E-10
       N       E                     dE             d eps       ncg     rms          rms(c)
DAV:   1    -0.102321918514E+03    0.27576E-04   -0.19943E-01    96   0.136E+00    0.155E-01
DAV:   2    -0.102322975300E+03   -0.10568E-02   -0.12620E-02   132   0.356E-01    0.848E-02
DAV:   3    -0.102322939600E+03    0.35699E-04   -0.21852E-04   132   0.491E-02    0.493E-02
DAV:   4    -0.102322914549E+03    0.25052E-04   -0.72447E-05   144   0.319E-02    0.854E-03
DAV:   5    -0.102322908368E+03    0.61811E-05   -0.13162E-05   132   0.132E-02    0.570E-03
DAV:   6    -0.102322910247E+03   -0.18793E-05   -0.43266E-06   120   0.682E-03    0.273E-03
DAV:   7    -0.102322919554E+03   -0.93070E-05   -0.14574E-06   120   0.405E-03    0.139E-03
DAV:   8    -0.102322935141E+03   -0.15587E-04   -0.85003E-07   108   0.244E-03    0.717E-04
DAV:   9    -0.102322947350E+03   -0.12209E-04   -0.79231E-07   108   0.198E-03    0.582E-04
DAV:  10    -0.102322960063E+03   -0.12713E-04   -0.79290E-07   108   0.179E-03    0.228E-04
DAV:  11    -0.102322964401E+03   -0.43376E-05   -0.16576E-07   108   0.886E-04    0.209E-04
DAV:  12    -0.102322967909E+03   -0.35084E-05   -0.82348E-08   108   0.662E-04    0.905E-05
DAV:  13    -0.102322969505E+03   -0.15963E-05   -0.37995E-08   108   0.433E-04    0.650E-05
DAV:  14    -0.102322970511E+03   -0.10060E-05   -0.10682E-08   108   0.277E-04    0.330E-05
DAV:  15    -0.102322970916E+03   -0.40481E-06    0.15473E-09   108   0.168E-04
  56 F= -.10232297E+03 E0= -.10232297E+03  d E =-.478973E-11
       N       E                     dE             d eps       ncg     rms          rms(c)
DAV:   1    -0.102321506036E+03    0.14645E-02   -0.40715E-01    96   0.188E+00    0.223E-01
DAV:   2    -0.102322980425E+03   -0.14744E-02   -0.17612E-02   132   0.412E-01    0.103E-01
DAV:   3    -0.102322912668E+03    0.67757E-04   -0.35899E-04   132   0.661E-02    0.551E-02
DAV:   4    -0.102322884626E+03    0.28042E-04   -0.10320E-04   132   0.429E-02    0.124E-02
DAV:   5    -0.102322877632E+03    0.69943E-05   -0.30868E-05   132   0.212E-02    0.817E-03
DAV:   6    -0.102322878261E+03   -0.62933E-06   -0.52925E-06   132   0.779E-03
  57 F= -.10232288E+03 E0= -.10232288E+03  d E =-.504607E-10
       N       E                     dE             d eps       ncg     rms          rms(c)
DAV:   1    -0.102321577675E+03    0.13000E-02   -0.20557E-01    96   0.127E+00    0.160E-01
DAV:   2    -0.102322273858E+03   -0.69618E-03   -0.82275E-03   132   0.265E-01    0.645E-02
DAV:   3    -0.102322261996E+03    0.11861E-04   -0.19182E-04   144   0.475E-02    0.344E-02
DAV:   4    -0.102322265977E+03   -0.39806E-05   -0.37487E-05   132   0.286E-02    0.859E-03
DAV:   5    -0.102322270304E+03   -0.43272E-05   -0.14941E-05   132   0.149E-02    0.603E-03
DAV:   6    -0.102322273163E+03   -0.28584E-05   -0.15895E-06   120   0.430E-03    0.423E-03
DAV:   7    -0.102322279072E+03   -0.59099E-05   -0.43892E-07   108   0.239E-03    0.144E-03
DAV:   8    -0.102322284637E+03   -0.55646E-05   -0.41598E-07   108   0.223E-03    0.823E-04
DAV:   9    -0.102322293968E+03   -0.93311E-05   -0.56522E-07   108   0.271E-03    0.532E-04
DAV:  10    -0.102322296341E+03   -0.23734E-05   -0.20623E-07   108   0.141E-03    0.620E-04
DAV:  11    -0.102322297575E+03   -0.12335E-05   -0.22972E-08   108   0.569E-04    0.448E-04
DAV:  12    -0.102322300414E+03   -0.28386E-05   -0.64045E-08   108   0.625E-04    0.114E-04
DAV:  13    -0.102322302129E+03   -0.17152E-05   -0.36201E-08   108   0.460E-04    0.222E-04
DAV:  14    -0.102322303240E+03   -0.11112E-05   -0.11442E-08   108   0.308E-04    0.620E-05
DAV:  15    -0.102322303680E+03   -0.44034E-06   -0.42316E-10   108   0.176E-04
  58 F= -.10232230E+03 E0= -.10232230E+03  d E =-.649707E-10
       N       E                     dE             d eps       ncg     rms          rms(c)
DAV:   1    -0.102320919504E+03    0.13837E-02   -0.40325E-01    96   0.186E+00    0.222E-01
DAV:   2    -0.102322463086E+03   -0.15436E-02   -0.18802E-02   132   0.427E-01    0.118E-01
DAV:   3    -0.102322368241E+03    0.94845E-04   -0.37318E-04   144   0.676E-02    0.609E-02
DAV:   4    -0.102322312937E+03    0.55304E-04   -0.96424E-05   132   0.395E-02    0.125E-02
DAV:   5    -0.102322305736E+03    0.72010E-05   -0.21069E-05   132   0.179E-02    0.788E-03
DAV:   6    -0.102322317467E+03   -0.11731E-04   -0.73745E-06   132   0.857E-03    0.441E-03
DAV:   7    -0.102322341334E+03   -0.23866E-04   -0.28147E-06   132   0.534E-03    0.192E-03
DAV:   8    -0.102322369734E+03   -0.28400E-04   -0.25532E-06   120   0.419E-03    0.127E-03
DAV:   9    -0.102322392397E+03   -0.22664E-04   -0.20175E-06   120   0.334E-03    0.846E-04
DAV:  10    -0.102322409356E+03   -0.16959E-04   -0.14706E-06   120   0.259E-03    0.430E-04
DAV:  11    -0.102322416427E+03   -0.70707E-05   -0.29741E-07   108   0.128E-03    0.314E-04
DAV:  12    -0.102322421266E+03   -0.48394E-05   -0.25586E-07   108   0.102E-03    0.141E-04
DAV:  13    -0.102322423002E+03   -0.17358E-05   -0.48701E-08   108   0.503E-04    0.898E-05
DAV:  14    -0.102322424011E+03   -0.10094E-05   -0.10207E-08   108   0.301E-04    0.504E-05
DAV:  15    -0.102322424480E+03   -0.46826E-06   -0.18511E-09   108   0.193E-04
  59 F= -.10232242E+03 E0= -.10232242E+03  d E =-.680585E-10
       N       E                     dE             d eps       ncg     rms          rms(c)
DAV:   1    -0.102321245736E+03    0.11783E-02   -0.20234E-01    96   0.133E+00    0.157E-01
DAV:   2    -0.102321979616E+03   -0.73388E-03   -0.90024E-03   132   0.306E-01    0.800E-02
DAV:   3    -0.102321932484E+03    0.47131E-04   -0.16006E-04   132   0.432E-02    0.417E-02
DAV:   4    -0.102321901547E+03    0.30937E-04   -0.43459E-05   132   0.246E-02    0.821E-03
DAV:   5    -0.102321893471E+03    0.80755E-05   -0.71856E-06   132   0.114E-02    0.460E-03
DAV:   6    -0.102321895128E+03   -0.16568E-05   -0.34704E-06   132   0.740E-03    0.237E-03
DAV:   7    -0.102321904306E+03   -0.91775E-05   -0.18747E-06   132   0.506E-03    0.141E-03
DAV:   8    -0.102321915881E+03   -0.11576E-04   -0.54935E-07   108   0.252E-03    0.829E-04
DAV:   9    -0.102321929186E+03   -0.13305E-04   -0.77812E-07   108   0.207E-03    0.495E-04
DAV:  10    -0.102321939848E+03   -0.10662E-04   -0.52248E-07   108   0.154E-03    0.266E-04
DAV:  11    -0.102321946459E+03   -0.66104E-05   -0.20325E-07   108   0.999E-04    0.176E-04
DAV:  12    -0.102321949957E+03   -0.34982E-05   -0.60197E-08   108   0.561E-04    0.105E-04
DAV:  13    -0.102321951876E+03   -0.19190E-05   -0.26624E-08   108   0.400E-04    0.477E-05
DAV:  14    -0.102321952718E+03   -0.84221E-06   -0.55431E-09   108   0.236E-04
  60 F= -.10232195E+03 E0= -.10232195E+03  d E =-.712812E-10
       N       E                     dE             d eps       ncg     rms          rms(c)
DAV:   1    -0.102320761923E+03    0.11900E-02   -0.40449E-01    96   0.189E+00    0.218E-01
DAV:   2    -0.102322118955E+03   -0.13570E-02   -0.17124E-02   132   0.418E-01    0.122E-01
DAV:   3    -0.102322004704E+03    0.11425E-03   -0.31079E-04   144   0.618E-02    0.598E-02
DAV:   4    -0.102321934986E+03    0.69718E-04   -0.84435E-05   132   0.345E-02    0.117E-02
DAV:   5    -0.102321931226E+03    0.37598E-05   -0.13024E-05   132   0.149E-02    0.683E-03
DAV:   6    -0.102321955784E+03   -0.24558E-04   -0.11108E-05   132   0.109E-02    0.330E-03
DAV:   7    -0.102321986785E+03   -0.31001E-04   -0.46177E-06   132   0.661E-03    0.225E-03
DAV:   8    -0.102322023223E+03   -0.36438E-04   -0.30120E-06   108   0.400E-03    0.111E-03
DAV:   9    -0.102322051817E+03   -0.28594E-04   -0.28253E-06   120   0.356E-03    0.836E-04
DAV:  10    -0.102322073643E+03   -0.21826E-04   -0.22289E-06   120   0.294E-03    0.314E-04
DAV:  11    -0.102322081003E+03   -0.73591E-05   -0.38217E-07   108   0.143E-03    0.289E-04
DAV:  12    -0.102322084740E+03   -0.37372E-05   -0.14171E-07   108   0.798E-04    0.125E-04
DAV:  13    -0.102322086600E+03   -0.18598E-05   -0.61618E-08   108   0.517E-04    0.679E-05
DAV:  14    -0.102322087635E+03   -0.10352E-05   -0.12946E-08   108   0.329E-04    0.457E-05
DAV:  15    -0.102322088048E+03   -0.41273E-06   -0.66571E-10   108   0.191E-04
  61 F= -.10232209E+03 E0= -.10232209E+03  d E =-.574150E-10
       N       E                     dE             d eps       ncg     rms          rms(c)
DAV:   1    -0.102325079611E+03   -0.29920E-02   -0.23232E-01    96   0.169E+00    0.138E-01
DAV:   2    -0.102325492678E+03   -0.41307E-03   -0.60389E-03   132   0.256E-01    0.795E-02
DAV:   3    -0.102325432381E+03    0.60297E-04   -0.16791E-04   132   0.455E-02    0.348E-02
DAV:   4    -0.102325415237E+03    0.17144E-04   -0.57451E-05   132   0.266E-02    0.762E-03
DAV:   5    -0.102325411102E+03    0.41344E-05   -0.72771E-06   132   0.106E-02    0.499E-03
DAV:   6    -0.102325412329E+03   -0.12264E-05   -0.33136E-06   132   0.611E-03    0.214E-03
DAV:   7    -0.102325416967E+03   -0.46385E-05   -0.69161E-07   108   0.342E-03    0.120E-03
DAV:   8    -0.102325425068E+03   -0.81006E-05   -0.52119E-07   108   0.224E-03    0.722E-04
DAV:   9    -0.102325433850E+03   -0.87817E-05   -0.49788E-07   108   0.184E-03    0.388E-04
DAV:  10    -0.102325441563E+03   -0.77130E-05   -0.40591E-07   108   0.140E-03    0.296E-04
DAV:  11    -0.102325446079E+03   -0.45165E-05   -0.12300E-07   108   0.869E-04    0.151E-04
DAV:  12    -0.102325448214E+03   -0.21350E-05   -0.43994E-08   108   0.504E-04    0.130E-04
DAV:  13    -0.102325448983E+03   -0.76839E-06   -0.45728E-09   108   0.263E-04
  62 F= -.10232545E+03 E0= -.10232545E+03  d E =-.760613E-10
       N       E                     dE             d eps       ncg     rms          rms(c)
DAV:   1    -0.102325436408E+03    0.11806E-04   -0.52788E-01    96   0.259E+00    0.173E-01
DAV:   2    -0.102325322871E+03    0.11354E-03   -0.28183E-03   120   0.184E-01    0.975E-02
DAV:   3    -0.102325183084E+03    0.13979E-03   -0.40290E-04   132   0.608E-02    0.200E-02
DAV:   4    -0.102325185425E+03   -0.23414E-05   -0.67272E-05   120   0.259E-02    0.950E-03
DAV:   5    -0.102325186356E+03   -0.93068E-06   -0.32297E-06   132   0.644E-03
  63 F= -.10232519E+03 E0= -.10232519E+03  d E =-.494744E-10
       N       E                     dE             d eps       ncg     rms          rms(c)
DAV:   1    -0.102324442592E+03    0.74283E-03   -0.27212E-01   108   0.186E+00    0.146E-01
DAV:   2    -0.102324421093E+03    0.21499E-04   -0.22518E-03   132   0.162E-01    0.801E-02
DAV:   3    -0.102324334058E+03    0.87035E-04   -0.25932E-04   132   0.464E-02    0.226E-02
DAV:   4    -0.102324331812E+03    0.22458E-05   -0.55960E-05   132   0.218E-02    0.810E-03
DAV:   5    -0.102324330207E+03    0.16048E-05   -0.32678E-06   120   0.710E-03    0.373E-03
DAV:   6    -0.102324330575E+03   -0.36754E-06   -0.23757E-06   132   0.531E-03
  64 F= -.10232433E+03 E0= -.10232433E+03  d E =-.645121E-10
       N       E                     dE             d eps       ncg     rms          rms(c)
DAV:   1    -0.102324250431E+03    0.79776E-04   -0.53625E-01   108   0.263E+00    0.200E-01
DAV:   2    -0.102324188111E+03    0.62320E-04   -0.43919E-03   120   0.225E-01    0.108E-01
DAV:   3    -0.102324002550E+03    0.18556E-03   -0.45049E-04   132   0.599E-02    0.318E-02
DAV:   4    -0.102323987129E+03    0.15421E-04   -0.81764E-05   132   0.268E-02    0.106E-02
DAV:   5    -0.102323986886E+03    0.24347E-06   -0.69531E-06   132   0.987E-03
  65 F= -.10232399E+03 E0= -.10232399E+03  d E =-.555394E-10
       N       E                     dE             d eps       ncg     rms          rms(c)
DAV:   1    -0.102325564514E+03   -0.15774E-02   -0.27140E-01    96   0.187E+00    0.143E-01
DAV:   2    -0.102325534753E+03    0.29761E-04   -0.22688E-03   132   0.169E-01    0.790E-02
DAV:   3    -0.102325453130E+03    0.81622E-04   -0.27178E-04   132   0.512E-02    0.211E-02
DAV:   4    -0.102325456170E+03   -0.30396E-05   -0.62056E-05   132   0.244E-02    0.750E-03
DAV:   5    -0.102325455630E+03    0.53999E-06   -0.31178E-06   132   0.667E-03
  66 F= -.10232546E+03 E0= -.10232546E+03  d E =-.650378E-10
       N       E                     dE             d eps       ncg     rms          rms(c)
DAV:   1    -0.102325484384E+03   -0.28214E-04   -0.53544E-01    96   0.261E+00    0.170E-01
DAV:   2    -0.102325343617E+03    0.14077E-03   -0.28229E-03   132   0.186E-01    0.976E-02
DAV:   3    -0.102325202039E+03    0.14158E-03   -0.47834E-04   132   0.691E-02    0.169E-02
DAV:   4    -0.102325207361E+03   -0.53227E-05   -0.82792E-05   132   0.306E-02    0.936E-03
DAV:   5    -0.102325206389E+03    0.97230E-06   -0.23722E-06   120   0.566E-03
  67 F= -.10232521E+03 E0= -.10232521E+03  d E =-.665210E-10
       N       E                     dE             d eps       ncg     rms          rms(c)
DAV:   1    -0.102325802084E+03   -0.59472E-03   -0.26557E-01    96   0.196E+00    0.118E-01
DAV:   2    -0.102325775968E+03    0.26116E-04   -0.13633E-03   132   0.133E-01    0.683E-02
DAV:   3    -0.102325720769E+03    0.55198E-04   -0.14611E-04   132   0.372E-02    0.976E-03
DAV:   4    -0.102325722515E+03   -0.17458E-05   -0.20775E-05   120   0.147E-02    0.461E-03
DAV:   5    -0.102325722708E+03   -0.19252E-06   -0.51746E-07   108   0.280E-03
  68 F= -.10232572E+03 E0= -.10232572E+03  d E =-.698224E-10
       N       E                     dE             d eps       ncg     rms          rms(c)
DAV:   1    -0.102326159257E+03   -0.43674E-03   -0.52592E-01    96   0.274E+00    0.160E-01
DAV:   2    -0.102326037618E+03    0.12164E-03   -0.21885E-03   132   0.165E-01    0.926E-02
DAV:   3    -0.102325935220E+03    0.10240E-03   -0.38427E-04   144   0.645E-02    0.118E-02
[...]
 131 F= -.10232572E+03 E0= -.10232572E+03  d E =-.486057E-11
       N       E                     dE             d eps       ncg     rms          rms(c)
DAV:   1    -0.102325439618E+03    0.27948E-03   -0.27060E-01    96   0.162E+00    0.141E-01
DAV:   2    -0.102325328196E+03    0.11142E-03   -0.15562E-03   120   0.125E-01    0.785E-02
DAV:   3    -0.102325250786E+03    0.77410E-04   -0.21409E-04   132   0.446E-02    0.188E-02
DAV:   4    -0.102325254284E+03   -0.34974E-05   -0.35865E-05   132   0.189E-02    0.647E-03
DAV:   5    -0.102325254813E+03   -0.52910E-06   -0.17462E-06   132   0.491E-03
 132 F= -.10232525E+03 E0= -.10232525E+03  d E =-.735345E-10
       N       E                     dE             d eps       ncg     rms          rms(c)
DAV:   1    -0.102325883757E+03   -0.62947E-03   -0.55091E-01    96   0.230E+00    0.225E-01
DAV:   2    -0.102325582132E+03    0.30163E-03   -0.32832E-03   120   0.188E-01    0.118E-01
DAV:   3    -0.102325402093E+03    0.18004E-03   -0.47945E-04   132   0.655E-02    0.360E-02
DAV:   4    -0.102325403756E+03   -0.16625E-05   -0.10251E-04   132   0.307E-02    0.115E-02
DAV:   5    -0.102325402921E+03    0.83505E-06   -0.55904E-06   132   0.904E-03
 133 F= -.10232540E+03 E0= -.10232540E+03  d E =-.594776E-10
       N       E                     dE             d eps       ncg     rms          rms(c)
DAV:   1    -0.102325427782E+03   -0.24026E-04   -0.27624E-01    96   0.201E+00    0.160E-01
DAV:   2    -0.102325340491E+03    0.87291E-04   -0.21654E-03   120   0.166E-01    0.861E-02
DAV:   3    -0.102325250408E+03    0.90082E-04   -0.21994E-04   132   0.480E-02    0.289E-02
DAV:   4    -0.102325249738E+03    0.67056E-06   -0.60124E-05   132   0.241E-02    0.815E-03
DAV:   5    -0.102325248995E+03    0.74294E-06   -0.37858E-06   144   0.752E-03
 134 F= -.10232525E+03 E0= -.10232525E+03  d E =-.656704E-10
       N       E                     dE             d eps       ncg     rms          rms(c)
DAV:   1    -0.102325569100E+03   -0.31936E-03   -0.55318E-01    96   0.258E+00    0.233E-01
DAV:   2    -0.102325249654E+03    0.31945E-03   -0.33770E-03   132   0.199E-01    0.121E-01
DAV:   3    -0.102325036482E+03    0.21317E-03   -0.45262E-04   132   0.626E-02    0.392E-02
DAV:   4    -0.102325030337E+03    0.61456E-05   -0.11350E-04   132   0.316E-02    0.118E-02
DAV:   5    -0.102325030627E+03   -0.29083E-06   -0.68822E-06   132   0.105E-02
 135 F= -.10232503E+03 E0= -.10232503E+03  d E =-.599626E-10
       N       E                     dE             d eps       ncg     rms          rms(c)
DAV:   1    -0.102324475106E+03    0.55523E-03   -0.28950E-01   108   0.184E+00    0.212E-01
DAV:   2    -0.102324258878E+03    0.21623E-03   -0.25900E-03   132   0.178E-01    0.104E-01
DAV:   3    -0.102324110773E+03    0.14810E-03   -0.37078E-04   132   0.620E-02    0.380E-02
DAV:   4    -0.102324110228E+03    0.54461E-06   -0.13372E-04   132   0.350E-02    0.139E-02
DAV:   5    -0.102324109069E+03    0.11595E-05   -0.60066E-06   132   0.975E-03    0.689E-03
DAV:   6    -0.102324109078E+03   -0.90731E-08   -0.26688E-06   132   0.620E-03
 136 F= -.10232411E+03 E0= -.10232411E+03  d E =-.685694E-10
       N       E                     dE             d eps       ncg     rms          rms(c)
DAV:   1    -0.102324991096E+03   -0.88203E-03   -0.57303E-01    96   0.260E+00    0.269E-01
DAV:   2    -0.102324460301E+03    0.53079E-03   -0.44386E-03   132   0.239E-01    0.138E-01
DAV:   3    -0.102324159734E+03    0.30057E-03   -0.81669E-04   132   0.905E-02    0.449E-02
DAV:   4    -0.102324161948E+03   -0.22143E-05   -0.21559E-04   132   0.468E-02    0.212E-02
DAV:   5    -0.102324161351E+03    0.59745E-06   -0.76911E-06   132   0.111E-02
 137 F= -.10232416E+03 E0= -.10232416E+03  d E =-.598023E-10
       N       E                     dE             d eps       ncg     rms          rms(c)
DAV:   1    -0.102325701800E+03   -0.15399E-02   -0.28818E-01    96   0.184E+00    0.204E-01
DAV:   2    -0.102325464946E+03    0.23685E-03   -0.24001E-03   132   0.174E-01    0.101E-01
DAV:   3    -0.102325319228E+03    0.14572E-03   -0.38722E-04   132   0.637E-02    0.353E-02
DAV:   4    -0.102325320882E+03   -0.16542E-05   -0.12542E-04   132   0.345E-02    0.139E-02
DAV:   5    -0.102325319875E+03    0.10071E-05   -0.52891E-06   132   0.941E-03    0.606E-03
DAV:   6    -0.102325320139E+03   -0.26420E-06   -0.29108E-06   132   0.619E-03
 138 F= -.10232532E+03 E0= -.10232532E+03  d E =-.700099E-10
       N       E                     dE             d eps       ncg     rms          rms(c)
DAV:   1    -0.102325694207E+03   -0.37433E-03   -0.54699E-01    96   0.257E+00    0.228E-01
DAV:   2    -0.102325419934E+03    0.27427E-03   -0.36357E-03   132   0.209E-01    0.120E-01
DAV:   3    -0.102325215587E+03    0.20435E-03   -0.44665E-04   144   0.660E-02    0.383E-02
DAV:   4    -0.102325215656E+03   -0.69758E-07   -0.11048E-04   144   0.323E-02    0.121E-02
DAV:   5    -0.102325216067E+03   -0.41074E-06   -0.67131E-06   132   0.101E-02
 139 F= -.10232522E+03 E0= -.10232522E+03  d E =-.582668E-10
       N       E                     dE             d eps       ncg     rms          rms(c)
DAV:   1    -0.102325145796E+03    0.69860E-04   -0.27633E-01    96   0.192E+00    0.166E-01
DAV:   2    -0.102325037357E+03    0.10844E-03   -0.18463E-03   120   0.149E-01    0.875E-02
DAV:   3    -0.102324946895E+03    0.90462E-04   -0.26452E-04   132   0.458E-02    0.263E-02
DAV:   4    -0.102324944947E+03    0.19483E-05   -0.42013E-05   144   0.193E-02    0.104E-02
DAV:   5    -0.102324943341E+03    0.16064E-05   -0.25046E-06   132   0.706E-03    0.491E-03
DAV:   6    -0.102324943329E+03    0.11270E-07   -0.22404E-06   132   0.559E-03
 140 F= -.10232494E+03 E0= -.10232494E+03  d E =-.676740E-10
       N       E                     dE             d eps       ncg     rms          rms(c)
DAV:   1    -0.102325509915E+03   -0.56657E-03   -0.55668E-01    96   0.255E+00    0.244E-01
DAV:   2    -0.102325128458E+03    0.38146E-03   -0.33606E-03   132   0.206E-01    0.124E-01
DAV:   3    -0.102324910004E+03    0.21845E-03   -0.51940E-04   132   0.663E-02    0.397E-02
DAV:   4    -0.102324902807E+03    0.71966E-05   -0.11180E-04   132   0.319E-02    0.137E-02
DAV:   5    -0.102324902853E+03   -0.46472E-07   -0.63668E-06   132   0.106E-02
 141 F= -.10232490E+03 E0= -.10232490E+03  d E =-.612218E-10
       N       E                     dE             d eps       ncg     rms          rms(c)
DAV:   1    -0.102324139264E+03    0.76354E-03   -0.27287E-01    96   0.181E+00    0.139E-01
DAV:   2    -0.102324000373E+03    0.13889E-03   -0.14500E-03   132   0.133E-01    0.784E-02
DAV:   3    -0.102323915059E+03    0.85314E-04   -0.26617E-04   132   0.514E-02    0.160E-02
DAV:   4    -0.102323920390E+03   -0.53310E-05   -0.50420E-05   132   0.235E-02    0.878E-03
DAV:   5    -0.102323920941E+03   -0.55109E-06   -0.11383E-06   120   0.423E-03
 142 F= -.10232392E+03 E0= -.10232392E+03  d E =-.640199E-10
       N       E                     dE             d eps       ncg     rms          rms(c)
DAV:   1    -0.102324531630E+03   -0.61124E-03   -0.58131E-01    96   0.260E+00    0.285E-01
DAV:   2    -0.102323990264E+03    0.54137E-03   -0.48668E-03   132   0.248E-01    0.143E-01
DAV:   3    -0.102323674718E+03    0.31555E-03   -0.84428E-04   132   0.946E-02    0.468E-02
DAV:   4    -0.102323679134E+03   -0.44166E-05   -0.24750E-04   132   0.498E-02    0.203E-02
DAV:   5    -0.102323676778E+03    0.23567E-05   -0.96047E-06   132   0.128E-02    0.831E-03
DAV:   6    -0.102323677048E+03   -0.26979E-06   -0.57423E-06   132   0.856E-03
 143 F= -.10232368E+03 E0= -.10232368E+03  d E =-.657345E-10
       N       E                     dE             d eps       ncg     rms          rms(c)
DAV:   1    -0.102326101366E+03   -0.24246E-02   -0.28138E-01    96   0.183E+00    0.168E-01
DAV:   2    -0.102325882977E+03    0.21839E-03   -0.19069E-03   132   0.158E-01    0.894E-02
DAV:   3    -0.102325769655E+03    0.11332E-03   -0.33134E-04   132   0.592E-02    0.255E-02
DAV:   4    -0.102325775393E+03   -0.57377E-05   -0.83982E-05   132   0.298E-02    0.120E-02
DAV:   5    -0.102325775476E+03   -0.82988E-07   -0.26121E-06   132   0.653E-03
 144 F= -.10232578E+03 E0= -.10232578E+03  d E =-.734256E-10
       N       E                     dE             d eps       ncg     rms          rms(c)
DAV:   1    -0.102326281072E+03   -0.50568E-03   -0.54177E-01    96   0.255E+00    0.200E-01
DAV:   2    -0.102325995327E+03    0.28574E-03   -0.27683E-03   132   0.186E-01    0.111E-01
DAV:   3    -0.102325830718E+03    0.16461E-03   -0.43007E-04   144   0.650E-02    0.236E-02
DAV:   4    -0.102325835977E+03   -0.52587E-05   -0.69412E-05   132   0.271E-02    0.970E-03
DAV:   5    -0.102325836409E+03   -0.43212E-06   -0.30440E-06   132   0.635E-03
 145 F= -.10232584E+03 E0= -.10232584E+03  d E =-.561361E-10
       N       E                     dE             d eps       ncg     rms          rms(c)
DAV:   1    -0.102325180941E+03    0.65504E-03   -0.27037E-01    96   0.197E+00    0.134E-01
DAV:   2    -0.102325114160E+03    0.66781E-04   -0.18053E-03   132   0.158E-01    0.760E-02
DAV:   3    -0.102325040371E+03    0.73789E-04   -0.22322E-04   132   0.505E-02    0.179E-02
DAV:   4    -0.102325043936E+03   -0.35651E-05   -0.50211E-05   132   0.235E-02    0.781E-03
DAV:   5    -0.102325043777E+03    0.15893E-06   -0.13842E-06   120   0.495E-03
 146 F= -.10232504E+03 E0= -.10232504E+03  d E =-.665845E-10
       N       E                     dE             d eps       ncg     rms          rms(c)
DAV:   1    -0.102325303377E+03   -0.25944E-03   -0.53573E-01   108   0.258E+00    0.178E-01
DAV:   2    -0.102325144649E+03    0.15873E-03   -0.30395E-03   132   0.191E-01    0.100E-01
DAV:   3    -0.102324990418E+03    0.15423E-03   -0.49375E-04   132   0.696E-02    0.198E-02
DAV:   4    -0.102324994661E+03   -0.42423E-05   -0.95126E-05   132   0.323E-02    0.108E-02
DAV:   5    -0.102324993704E+03    0.95610E-06   -0.26446E-06   132   0.608E-03
 147 F= -.10232499E+03 E0= -.10232499E+03  d E =-.626974E-10
       N       E                     dE             d eps       ncg     rms          rms(c)
DAV:   1    -0.102323968485E+03    0.10262E-02   -0.26333E-01    96   0.180E+00    0.112E-01
DAV:   2    -0.102323910474E+03    0.58011E-04   -0.10704E-03   132   0.113E-01    0.636E-02
DAV:   3    -0.102323854673E+03    0.55801E-04   -0.16247E-04   132   0.395E-02    0.104E-02
DAV:   4    -0.102323857464E+03   -0.27914E-05   -0.23813E-05   132   0.165E-02    0.582E-03
DAV:   5    -0.102323858752E+03   -0.12872E-05   -0.87484E-07   108   0.346E-03    0.394E-03
DAV:   6    -0.102323862090E+03   -0.33388E-05   -0.82651E-07   108   0.336E-03    0.702E-04
DAV:   7    -0.102323863944E+03   -0.18538E-05   -0.31404E-07   108   0.190E-03    0.648E-04
DAV:   8    -0.102323867357E+03   -0.34132E-05   -0.20984E-07    96   0.167E-03    0.237E-04
DAV:   9    -0.102323869225E+03   -0.18675E-05   -0.14423E-07   108   0.106E-03    0.242E-04
DAV:  10    -0.102323870860E+03   -0.16351E-05   -0.49298E-08   108   0.666E-04    0.150E-04
DAV:  11    -0.102323872050E+03   -0.11900E-05   -0.49873E-08   108   0.472E-04    0.772E-05
DAV:  12    -0.102323872641E+03   -0.59098E-06   -0.10951E-08   108   0.266E-04
 148 F= -.10232387E+03 E0= -.10232387E+03  d E =-.603330E-10
       N       E                     dE             d eps       ncg     rms          rms(c)
DAV:   1    -0.102324279660E+03   -0.40761E-03   -0.54179E-01    96   0.261E+00    0.205E-01
DAV:   2    -0.102324213096E+03    0.66564E-04   -0.44402E-03   132   0.231E-01    0.110E-01
DAV:   3    -0.102324023784E+03    0.18931E-03   -0.46199E-04   132   0.636E-02    0.319E-02
DAV:   4    -0.102324014252E+03    0.95319E-05   -0.10083E-04   132   0.291E-02    0.107E-02
DAV:   5    -0.102324011835E+03    0.24164E-05   -0.54781E-06   132   0.101E-02    0.531E-03
DAV:   6    -0.102324014274E+03   -0.24386E-05   -0.43752E-06   132   0.762E-03    0.185E-03
DAV:   7    -0.102324018316E+03   -0.40419E-05   -0.13117E-06   132   0.392E-03    0.140E-03
DAV:   8    -0.102324023427E+03   -0.51113E-05   -0.24326E-07   108   0.166E-03    0.625E-04
DAV:   9    -0.102324028936E+03   -0.55085E-05   -0.33006E-07   108   0.152E-03    0.386E-04
DAV:  10    -0.102324035332E+03   -0.63963E-05   -0.38006E-07   108   0.139E-03    0.191E-04
DAV:  11    -0.102324038388E+03   -0.30565E-05   -0.91955E-08   108   0.763E-04    0.178E-04
DAV:  12    -0.102324040188E+03   -0.17991E-05   -0.19713E-08   108   0.421E-04    0.814E-05
DAV:  13    -0.102324041398E+03   -0.12104E-05   -0.16564E-08   108   0.324E-04    0.606E-05
DAV:  14    -0.102324042072E+03   -0.67424E-06   -0.22045E-09   108   0.205E-04
 149 F= -.10232404E+03 E0= -.10232404E+03  d E =-.673987E-10
       N       E                     dE             d eps       ncg     rms          rms(c)
DAV:   1    -0.102326012503E+03   -0.19711E-02   -0.26608E-01    96   0.183E+00    0.128E-01
DAV:   2    -0.102325937159E+03    0.75344E-04   -0.14885E-03   132   0.140E-01    0.710E-02
DAV:   3    -0.102325866587E+03    0.70572E-04   -0.20593E-04   132   0.451E-02    0.155E-02
DAV:   4    -0.102325867003E+03   -0.41537E-06   -0.36146E-05   120   0.194E-02    0.747E-03
DAV:   5    -0.102325867334E+03   -0.33149E-06   -0.12888E-06   108   0.452E-03
 150 F= -.10232587E+03 E0= -.10232587E+03  d E =-.640802E-10
       N       E                     dE             d eps       ncg     rms          rms(c)
DAV:   1    -0.102326027230E+03   -0.16023E-03   -0.52520E-01    96   0.254E+00    0.159E-01
DAV:   2    -0.102325906874E+03    0.12036E-03   -0.21422E-03   132   0.164E-01    0.917E-02
DAV:   3    -0.102325804514E+03    0.10236E-03   -0.33903E-04   132   0.603E-02    0.122E-02
DAV:   4    -0.102325810901E+03   -0.63865E-05   -0.51614E-05   132   0.242E-02    0.859E-03
DAV:   5    -0.102325811888E+03   -0.98738E-06   -0.16453E-06   120   0.445E-03
 151 F= -.10232581E+03 E0= -.10232581E+03  d E =-.590792E-10
       N       E                     dE             d eps       ncg     rms          rms(c)
DAV:   1    -0.102323731824E+03    0.20791E-02   -0.26624E-01    96   0.193E+00    0.130E-01
DAV:   2    -0.102323689711E+03    0.42113E-04   -0.19703E-03   132   0.163E-01    0.711E-02
DAV:   3    -0.102323613954E+03    0.75757E-04   -0.21105E-04   132   0.493E-02    0.192E-02
DAV:   4    -0.102323616231E+03   -0.22775E-05   -0.55311E-05   132   0.235E-02    0.727E-03
DAV:   5    -0.102323617555E+03   -0.13234E-05   -0.23207E-06   132   0.574E-03    0.494E-03
DAV:   6    -0.102323621232E+03   -0.36774E-05   -0.15352E-06   120   0.449E-03    0.979E-04
DAV:   7    -0.102323623418E+03   -0.21854E-05   -0.52871E-07   108   0.248E-03    0.773E-04
DAV:   8    -0.102323625544E+03   -0.21259E-05   -0.96357E-08   108   0.108E-03    0.427E-04
DAV:   9    -0.102323629348E+03   -0.38040E-05   -0.24427E-07   108   0.129E-03    0.370E-04
DAV:  10    -0.102323630533E+03   -0.11849E-05   -0.61184E-08   108   0.738E-04    0.156E-04
DAV:  11    -0.102323632016E+03   -0.14836E-05   -0.68559E-08   108   0.630E-04    0.185E-04
DAV:  12    -0.102323632756E+03   -0.73996E-06   -0.28327E-08   108   0.410E-04
 152 F= -.10232363E+03 E0= -.10232363E+03  d E =-.600348E-10
       N       E                     dE             d eps       ncg     rms          rms(c)
DAV:   1    -0.102324119230E+03   -0.48721E-03   -0.54495E-01   108   0.267E+00    0.205E-01
DAV:   2    -0.102324031507E+03    0.87723E-04   -0.46591E-03   132   0.244E-01    0.114E-01
DAV:   3    -0.102323812522E+03    0.21899E-03   -0.58666E-04   132   0.772E-02    0.301E-02
DAV:   4    -0.102323810819E+03    0.17030E-05   -0.14616E-04   120   0.372E-02    0.123E-02
DAV:   5    -0.102323808610E+03    0.22085E-05   -0.54844E-06   132   0.965E-03    0.651E-03
DAV:   6    -0.102323810794E+03   -0.21836E-05   -0.50965E-06   132   0.845E-03    0.173E-03
DAV:   7    -0.102323814492E+03   -0.36979E-05   -0.15637E-06   132   0.432E-03    0.136E-03
DAV:   8    -0.102323820040E+03   -0.55482E-05   -0.29352E-07   108   0.154E-03    0.476E-04
DAV:   9    -0.102323824433E+03   -0.43926E-05   -0.23907E-07   108   0.120E-03    0.421E-04
DAV:  10    -0.102323830089E+03   -0.56564E-05   -0.29156E-07   108   0.125E-03    0.192E-04
DAV:  11    -0.102323832782E+03   -0.26931E-05   -0.88154E-08   108   0.740E-04    0.217E-04
DAV:  12    -0.102323834373E+03   -0.15910E-05   -0.19759E-08   108   0.416E-04    0.102E-04
DAV:  13    -0.102323835475E+03   -0.11014E-05   -0.11550E-08   108   0.310E-04    0.745E-05
DAV:  14    -0.102323836539E+03   -0.10646E-05   -0.12618E-08   108   0.268E-04    0.369E-05
DAV:  15    -0.102323836823E+03   -0.28380E-06    0.38313E-09   108   0.121E-04
 153 F= -.10232384E+03 E0= -.10232384E+03  d E =-.674056E-10
       N       E                     dE             d eps       ncg     rms          rms(c)
DAV:   1    -0.102325730692E+03   -0.18942E-02   -0.26876E-01   108   0.189E+00    0.140E-01
DAV:   2    -0.102325688975E+03    0.41717E-04   -0.21248E-03   132   0.156E-01    0.762E-02
DAV:   3    -0.102325593194E+03    0.95781E-04   -0.21926E-04   132   0.434E-02    0.226E-02
DAV:   4    -0.102325586817E+03    0.63766E-05   -0.44628E-05   132   0.200E-02    0.789E-03
DAV:   5    -0.102325588270E+03   -0.14529E-05   -0.28325E-06   120   0.701E-03    0.379E-03
DAV:   6    -0.102325592882E+03   -0.46115E-05   -0.20657E-06   132   0.497E-03    0.116E-03
DAV:   7    -0.102325597376E+03   -0.44944E-05   -0.50446E-07   108   0.254E-03    0.762E-04
DAV:   8    -0.102325602753E+03   -0.53770E-05   -0.29264E-07   108   0.158E-03    0.407E-04
DAV:   9    -0.102325606512E+03   -0.37589E-05   -0.21256E-07   108   0.124E-03    0.257E-04
DAV:  10    -0.102325610240E+03   -0.37281E-05   -0.24896E-07   108   0.109E-03    0.138E-04
DAV:  11    -0.102325611293E+03   -0.10530E-05   -0.42130E-08   108   0.521E-04    0.116E-04
DAV:  12    -0.102325612306E+03   -0.10130E-05   -0.24038E-08   108   0.371E-04    0.659E-05
DAV:  13    -0.102325612983E+03   -0.67673E-06   -0.23815E-08   108   0.315E-04
 154 F= -.10232561E+03 E0= -.10232561E+03  d E =-.610181E-10
       N       E                     dE             d eps       ncg     rms          rms(c)
DAV:   1    -0.102326172056E+03   -0.55975E-03   -0.53133E-01    96   0.263E+00    0.160E-01
DAV:   2    -0.102326060660E+03    0.11140E-03   -0.20880E-03   132   0.159E-01    0.921E-02
DAV:   3    -0.102325944238E+03    0.11642E-03   -0.34074E-04   132   0.565E-02    0.147E-02
DAV:   4    -0.102325946419E+03   -0.21805E-05   -0.48093E-05   132   0.230E-02    0.762E-03
DAV:   5    -0.102325945973E+03    0.44633E-06   -0.19815E-06   132   0.514E-03
 155 F= -.10232595E+03 E0= -.10232595E+03  d E =-.716802E-10
       N       E                     dE             d eps       ncg     rms          rms(c)
DAV:   1    -0.102325464646E+03    0.48177E-03   -0.26432E-01    96   0.186E+00    0.115E-01
DAV:   2    -0.102325406258E+03    0.58388E-04   -0.11523E-03   132   0.124E-01    0.665E-02
DAV:   3    -0.102325359677E+03    0.46581E-04   -0.18126E-04   132   0.454E-02    0.948E-03
DAV:   4    -0.102325364242E+03   -0.45653E-05   -0.32726E-05   132   0.191E-02    0.639E-03
DAV:   5    -0.102325364845E+03   -0.60280E-06   -0.69019E-07   108   0.328E-03
 156 F= -.10232536E+03 E0= -.10232536E+03  d E =-.601922E-10
       N       E                     dE             d eps       ncg     rms          rms(c)
DAV:   1    -0.102325472542E+03   -0.10830E-03   -0.52608E-01    96   0.264E+00    0.172E-01
DAV:   2    -0.102325392773E+03    0.79769E-04   -0.29287E-03   120   0.191E-01    0.975E-02
DAV:   3    -0.102325266435E+03    0.12634E-03   -0.36546E-04   132   0.595E-02    0.214E-02
DAV:   4    -0.102325267136E+03   -0.70155E-06   -0.60263E-05   132   0.248E-02    0.979E-03
DAV:   5    -0.102325267104E+03    0.32195E-07   -0.30238E-06   132   0.634E-03
 157 F= -.10232527E+03 E0= -.10232527E+03  d E =-.667136E-10
