       N       E                     dE             d eps       ncg     rms          rms(c)
DAV:   1     0.201300103623E+03    0.20130E+03   -0.10486E+04   116   0.546E+02
DAV:   2    -0.273978750402E+02   -0.22870E+03   -0.21466E+03   136   0.103E+02
DAV:   3    -0.102689545302E+03   -0.75292E+02   -0.75118E+02   112   0.557E+01
DAV:   4    -0.106976846667E+03   -0.42873E+01   -0.42713E+01   104   0.186E+01
DAV:   5    -0.107056519169E+03   -0.79673E-01   -0.79606E-01   120   0.285E+00    0.150E+01
DAV:   6    -0.103839839084E+03    0.32167E+01   -0.15737E+00   104   0.456E+00    0.873E+00
DAV:   7    -0.102146926062E+03    0.16929E+01   -0.41098E+00   104   0.675E+00    0.122E+00
DAV:   8    -0.102096443637E+03    0.50482E-01   -0.26102E-01   104   0.218E+00    0.622E-01
DAV:   9    -0.102060147744E+03    0.36296E-01   -0.78826E-02   128   0.795E-01    0.347E-01
DAV:  10    -0.102060617994E+03   -0.47025E-03   -0.30182E-03   112   0.221E-01    0.162E-01
DAV:  11    -0.102060258077E+03    0.35992E-03   -0.71440E-03   104   0.248E-01    0.822E-02
DAV:  12    -0.102064257999E+03   -0.39999E-02   -0.85567E-04    96   0.907E-02    0.576E-02
DAV:  13    -0.102069207776E+03   -0.49498E-02   -0.19760E-03   104   0.113E-01    0.342E-02
DAV:  14    -0.102072877743E+03   -0.36700E-02   -0.29821E-04   112   0.496E-02    0.163E-02
DAV:  15    -0.102077644098E+03   -0.47664E-02   -0.59403E-04   112   0.636E-02    0.156E-02
DAV:  16    -0.102078643367E+03   -0.99927E-03   -0.49400E-05   112   0.210E-02    0.693E-03
DAV:  17    -0.102079751403E+03   -0.11080E-02   -0.96247E-05   104   0.235E-02    0.326E-03
DAV:  18    -0.102080012352E+03   -0.26095E-03   -0.80436E-06   104   0.813E-03    0.193E-03
DAV:  19    -0.102080201951E+03   -0.18960E-03   -0.75221E-06    96   0.684E-03    0.189E-03
DAV:  20    -0.102080248741E+03   -0.46790E-04   -0.75951E-07    88   0.314E-03    0.542E-04
DAV:  21    -0.102080281454E+03   -0.32713E-04   -0.10651E-06    80   0.268E-03    0.615E-04
DAV:  22    -0.102080288839E+03   -0.73856E-05   -0.16761E-07    88   0.129E-03    0.231E-04
DAV:  23    -0.102080293461E+03   -0.46215E-05   -0.12816E-07    80   0.934E-04    0.175E-04
DAV:  24    -0.102080295824E+03   -0.23636E-05   -0.36677E-08    88   0.557E-04    0.791E-05
DAV:  25    -0.102080296488E+03   -0.66405E-06   -0.12924E-08    88   0.304E-04
   1 F= -.10208030E+03 E0= -.10208030E+03  d E =-.102080E+03
       N       E                     dE             d eps       ncg     rms          rms(c)
DAV:   1    -0.102231497122E+03   -0.15120E+00   -0.68330E+00    84   0.109E+01    0.116E+00
DAV:   2    -0.102258550367E+03   -0.27053E-01   -0.33792E-01   120   0.234E+00    0.598E-01
DAV:   3    -0.102253732875E+03    0.48175E-02   -0.13107E-02   120   0.478E-01    0.299E-01
DAV:   4    -0.102252767002E+03    0.96587E-03   -0.72005E-03   112   0.306E-01    0.687E-02
DAV:   5    -0.102252609516E+03    0.15749E-03   -0.65247E-04   112   0.113E-01    0.447E-02
DAV:   6    -0.102252634570E+03   -0.25054E-04   -0.14505E-04   120   0.480E-02    0.245E-02
DAV:   7    -0.102252787987E+03   -0.15342E-03   -0.61943E-05   112   0.367E-02    0.780E-03
DAV:   8    -0.102252887100E+03   -0.99113E-04   -0.27995E-05   112   0.220E-02    0.962E-03
DAV:   9    -0.102252940422E+03   -0.53321E-04   -0.39805E-06   120   0.770E-03    0.762E-03
DAV:  10    -0.102253138784E+03   -0.19836E-03   -0.17884E-05   104   0.106E-02    0.518E-03
DAV:  11    -0.102253177577E+03   -0.38794E-04   -0.15986E-06    96   0.518E-03    0.340E-03
DAV:  12    -0.102253256372E+03   -0.78795E-04   -0.50160E-06   104   0.762E-03    0.243E-03
DAV:  13    -0.102253283155E+03   -0.26783E-04   -0.13407E-06    88   0.419E-03    0.845E-04
DAV:  14    -0.102253301837E+03   -0.18682E-04   -0.42344E-07    88   0.196E-03    0.518E-04
DAV:  15    -0.102253323236E+03   -0.21399E-04   -0.51238E-07    88   0.165E-03    0.774E-04
DAV:  16    -0.102253330304E+03   -0.70681E-05   -0.10874E-07    88   0.901E-04    0.227E-04
DAV:  17    -0.102253335040E+03   -0.47356E-05   -0.98961E-08    88   0.897E-04    0.504E-04
DAV:  18    -0.102253336604E+03   -0.15637E-05   -0.26842E-08    88   0.643E-04    0.111E-04
DAV:  19    -0.102253337282E+03   -0.67795E-06   -0.14070E-08    88   0.385E-04
   2 F= -.10225334E+03 E0= -.10225334E+03  d E =-.173041E+00
       N       E                     dE             d eps       ncg     rms          rms(c)
DAV:   1    -0.102256717299E+03   -0.33807E-02   -0.10446E-01    84   0.138E+00    0.138E-01
DAV:   2    -0.102257128179E+03   -0.41088E-03   -0.53519E-03   120   0.295E-01    0.770E-02
DAV:   3    -0.102257041151E+03    0.87028E-04   -0.21197E-04   120   0.610E-02    0.386E-02
DAV:   4    -0.102257017909E+03    0.23242E-04   -0.11619E-04   112   0.391E-02    0.952E-03
DAV:   5    -0.102257015098E+03    0.28114E-05   -0.11067E-05   112   0.148E-02    0.578E-03
DAV:   6    -0.102257018616E+03   -0.35180E-05   -0.25351E-06   104   0.626E-03    0.288E-03
DAV:   7    -0.102257026703E+03   -0.80873E-05   -0.99722E-07    80   0.471E-03    0.851E-04
DAV:   8    -0.102257031420E+03   -0.47167E-05   -0.66655E-07    88   0.322E-03    0.119E-03
DAV:   9    -0.102257034283E+03   -0.28631E-05   -0.15968E-07    88   0.158E-03    0.778E-04
DAV:  10    -0.102257042864E+03   -0.85812E-05   -0.76824E-07    80   0.211E-03    0.698E-04
DAV:  11    -0.102257043773E+03   -0.90888E-06   -0.71951E-08    96   0.903E-04
   3 F= -.10225704E+03 E0= -.10225704E+03  d E =-.176747E+00
       N       E                     dE             d eps       ncg     rms          rms(c)
DAV:   1    -0.102291220401E+03   -0.34178E-01   -0.87866E-01    84   0.398E+00    0.407E-01
DAV:   2    -0.102295492860E+03   -0.42725E-02   -0.51115E-02   120   0.861E-01    0.193E-01
DAV:   3    -0.102295110538E+03    0.38232E-03   -0.21777E-03   128   0.194E-01    0.103E-01
DAV:   4    -0.102295101540E+03    0.89982E-05   -0.72369E-04   112   0.103E-01    0.344E-02
DAV:   5    -0.102295094625E+03    0.69150E-05   -0.65656E-05   112   0.358E-02    0.198E-02
DAV:   6    -0.102295091961E+03    0.26646E-05   -0.13349E-05   120   0.164E-02    0.102E-02
DAV:   7    -0.102295102652E+03   -0.10691E-04   -0.94443E-06   104   0.136E-02    0.250E-03
DAV:   8    -0.102295110694E+03   -0.80424E-05   -0.27900E-06   112   0.700E-03    0.285E-03
DAV:   9    -0.102295114004E+03   -0.33093E-05   -0.12755E-07    88   0.149E-03    0.179E-03
DAV:  10    -0.102295130152E+03   -0.16148E-04   -0.15503E-06    88   0.339E-03    0.124E-03
DAV:  11    -0.102295132065E+03   -0.19136E-05   -0.12563E-07    88   0.129E-03    0.928E-04
DAV:  12    -0.102295138234E+03   -0.61689E-05   -0.29228E-07    80   0.165E-03    0.274E-04
DAV:  13    -0.102295141459E+03   -0.32253E-05   -0.19974E-07    88   0.112E-03    0.293E-04
DAV:  14    -0.102295142198E+03   -0.73824E-06   -0.15534E-08    88   0.547E-04
   4 F= -.10229514E+03 E0= -.10229514E+03  d E =-.380984E-01
       N       E                     dE             d eps       ncg     rms          rms(c)
DAV:   1    -0.102297504265E+03   -0.23628E-02   -0.11576E-01    84   0.145E+00    0.143E-01
DAV:   2    -0.102298059538E+03   -0.55527E-03   -0.67040E-03   120   0.311E-01    0.703E-02
DAV:   3    -0.102298011273E+03    0.48264E-04   -0.29836E-04   128   0.716E-02    0.368E-02
DAV:   4    -0.102298012830E+03   -0.15569E-05   -0.96779E-05   112   0.377E-02    0.133E-02
DAV:   5    -0.102298010751E+03    0.20796E-05   -0.81931E-06   110   0.127E-02    0.731E-03
DAV:   6    -0.102298009682E+03    0.10688E-05   -0.20728E-06    96   0.648E-03    0.330E-03
DAV:   7    -0.102298010875E+03   -0.11931E-05   -0.12725E-06    88   0.488E-03    0.837E-04
DAV:   8    -0.102298012271E+03   -0.13964E-05   -0.33390E-07    88   0.252E-03    0.768E-04
DAV:   9    -0.102298013519E+03   -0.12473E-05   -0.73881E-08    88   0.111E-03    0.422E-04
DAV:  10    -0.102298016385E+03   -0.28667E-05   -0.18935E-07    80   0.125E-03    0.377E-04
DAV:  11    -0.102298016746E+03   -0.36111E-06   -0.27911E-08    88   0.603E-04
   5 F= -.10229802E+03 E0= -.10229802E+03  d E =-.409730E-01
       N       E                     dE             d eps       ncg     rms          rms(c)
DAV:   1    -0.102309845057E+03   -0.11829E-01   -0.34578E-01    84   0.268E+00    0.225E-01
DAV:   2    -0.102310708430E+03   -0.86337E-03   -0.13136E-02   120   0.442E-01    0.115E-01
DAV:   3    -0.102310584614E+03    0.12382E-03   -0.55763E-04   120   0.908E-02    0.599E-02
DAV:   4    -0.102310568708E+03    0.15906E-04   -0.17182E-04   112   0.444E-02    0.169E-02
DAV:   5    -0.102310565001E+03    0.37075E-05   -0.13116E-05   112   0.147E-02    0.101E-02
DAV:   6    -0.102310566887E+03   -0.18860E-05   -0.51838E-06   104   0.856E-03    0.317E-03
DAV:   7    -0.102310575103E+03   -0.82157E-05   -0.15894E-06    88   0.490E-03    0.140E-03
DAV:   8    -0.102310583295E+03   -0.81928E-05   -0.49019E-07    88   0.247E-03    0.940E-04
DAV:   9    -0.102310593998E+03   -0.10703E-04   -0.54980E-07    78   0.191E-03    0.416E-04
DAV:  10    -0.102310601374E+03   -0.73758E-05   -0.44877E-07    88   0.154E-03    0.327E-04
DAV:  11    -0.102310607236E+03   -0.58615E-05   -0.32828E-07    88   0.135E-03    0.316E-04
DAV:  12    -0.102310608548E+03   -0.13124E-05   -0.50288E-08    88   0.661E-04    0.116E-04
DAV:  13    -0.102310609706E+03   -0.11579E-05   -0.27461E-08    80   0.435E-04    0.597E-05
DAV:  14    -0.102310610796E+03   -0.10896E-05   -0.35731E-08    80   0.421E-04    0.448E-05
DAV:  15    -0.102310611055E+03   -0.25906E-06   -0.35540E-09    80   0.180E-04
   6 F= -.10231061E+03 E0= -.10231061E+03  d E =-.125943E-01
       N       E                     dE             d eps       ncg     rms          rms(c)
DAV:   1    -0.102311830085E+03   -0.12193E-02   -0.68903E-02    84   0.120E+00    0.100E-01
DAV:   2    -0.102312005295E+03   -0.17521E-03   -0.26321E-03   120   0.198E-01    0.515E-02
DAV:   3    -0.102311982620E+03    0.22675E-04   -0.11127E-04   120   0.406E-02    0.268E-02
DAV:   4    -0.102311980452E+03    0.21671E-05   -0.34234E-05   112   0.199E-02    0.765E-03
DAV:   5    -0.102311979041E+03    0.14118E-05   -0.25410E-06   104   0.659E-03    0.442E-03
DAV:   6    -0.102311978832E+03    0.20909E-06   -0.11464E-06    88   0.411E-03
   7 F= -.10231198E+03 E0= -.10231198E+03  d E =-.139621E-01
       N       E                     dE             d eps       ncg     rms          rms(c)
DAV:   1    -0.102316952055E+03   -0.49730E-02   -0.21442E-01    84   0.215E+00    0.155E-01
DAV:   2    -0.102317279461E+03   -0.32741E-03   -0.66294E-03   120   0.324E-01    0.831E-02
DAV:   3    -0.102317189161E+03    0.90300E-04   -0.41711E-04   128   0.847E-02    0.427E-02
DAV:   4    -0.102317184975E+03    0.41864E-05   -0.14414E-04   128   0.497E-02    0.125E-02
DAV:   5    -0.102317187596E+03   -0.26207E-05   -0.25114E-05   112   0.203E-02    0.882E-03
DAV:   6    -0.102317188234E+03   -0.63803E-06   -0.13847E-06    96   0.465E-03
   8 F= -.10231719E+03 E0= -.10231719E+03  d E =-.520940E-02
       N       E                     dE             d eps       ncg     rms          rms(c)
DAV:   1    -0.102317304245E+03   -0.11665E-03   -0.64832E-03    84   0.373E-01    0.271E-02
DAV:   2    -0.102317315962E+03   -0.11717E-04   -0.20501E-04   120   0.570E-02    0.146E-02
DAV:   3    -0.102317314707E+03    0.12549E-05   -0.12676E-05   128   0.149E-02    0.761E-03
DAV:   4    -0.102317316618E+03   -0.19113E-05   -0.45092E-06   120   0.909E-03    0.212E-03
DAV:   5    -0.102317318306E+03   -0.16882E-05   -0.88815E-07    88   0.403E-03    0.142E-03
DAV:   6    -0.102317319720E+03   -0.14139E-05   -0.14127E-07    88   0.156E-03    0.776E-04
DAV:   7    -0.102317321805E+03   -0.20847E-05   -0.82832E-08    88   0.106E-03    0.213E-04
DAV:   8    -0.102317323847E+03   -0.20418E-05   -0.67788E-08    88   0.807E-04    0.201E-04
DAV:   9    -0.102317325957E+03   -0.21100E-05   -0.78221E-08    88   0.784E-04    0.918E-05
DAV:  10    -0.102317326645E+03   -0.68790E-06   -0.23195E-08    88   0.459E-04
   9 F= -.10231733E+03 E0= -.10231733E+03  d E =-.534781E-02
       N       E                     dE             d eps       ncg     rms          rms(c)
DAV:   1    -0.102320380106E+03   -0.30541E-02   -0.11402E-01    84   0.156E+00    0.993E-02
DAV:   2    -0.102320521926E+03   -0.14182E-03   -0.29982E-03   120   0.220E-01    0.572E-02
DAV:   3    -0.102320474329E+03    0.47597E-04   -0.16584E-04   128   0.502E-02    0.285E-02
DAV:   4    -0.102320460605E+03    0.13725E-04   -0.46029E-05   128   0.274E-02    0.645E-03
DAV:   5    -0.102320456208E+03    0.43969E-05   -0.77466E-06   120   0.121E-02    0.500E-03
DAV:   6    -0.102320455631E+03    0.57697E-06   -0.17634E-06    96   0.588E-03
  10 F= -.10232046E+03 E0= -.10232046E+03  d E =-.312899E-02
       N       E                     dE             d eps       ncg     rms          rms(c)
DAV:   1    -0.102321315724E+03   -0.85952E-03   -0.13421E-01    84   0.170E+00    0.108E-01
DAV:   2    -0.102321485082E+03   -0.16936E-03   -0.35760E-03   120   0.240E-01    0.622E-02
DAV:   3    -0.102321425519E+03    0.59563E-04   -0.19710E-04   128   0.548E-02    0.311E-02
DAV:   4    -0.102321406579E+03    0.18939E-04   -0.53435E-05   120   0.301E-02    0.694E-03
DAV:   5    -0.102321403353E+03    0.32264E-05   -0.10482E-05   120   0.140E-02    0.570E-03
DAV:   6    -0.102321404929E+03   -0.15757E-05   -0.24266E-06   112   0.664E-03    0.448E-03
DAV:   7    -0.102321411568E+03   -0.66391E-05   -0.49538E-07    88   0.392E-03    0.133E-03
DAV:   8    -0.102321418421E+03   -0.68533E-05   -0.80957E-07    88   0.428E-03    0.153E-03
DAV:   9    -0.102321432007E+03   -0.13586E-04   -0.13311E-06    96   0.446E-03    0.138E-03
DAV:  10    -0.102321436953E+03   -0.49461E-05   -0.40111E-07    88   0.243E-03    0.132E-03
DAV:  11    -0.102321438497E+03   -0.15434E-05   -0.53188E-08    88   0.954E-04    0.102E-03
DAV:  12    -0.102321443039E+03   -0.45430E-05   -0.17087E-07    78   0.150E-03    0.203E-04
DAV:  13    -0.102321444644E+03   -0.16046E-05   -0.78764E-08    88   0.839E-04    0.388E-04
DAV:  14    -0.102321445326E+03   -0.68162E-06   -0.98299E-09    80   0.412E-04
  11 F= -.10232145E+03 E0= -.10232145E+03  d E =-.411868E-02
       N       E                     dE             d eps       ncg     rms          rms(c)
DAV:   1    -0.102322854002E+03   -0.14094E-02   -0.19536E-01    84   0.201E+00    0.134E-01
DAV:   2    -0.102323166625E+03   -0.31262E-03   -0.54009E-03   120   0.292E-01    0.763E-02
DAV:   3    -0.102323082878E+03    0.83747E-04   -0.29977E-04   128   0.739E-02    0.377E-02
DAV:   4    -0.102323081085E+03    0.17925E-05   -0.12543E-04   128   0.434E-02    0.110E-02
DAV:   5    -0.102323081432E+03   -0.34650E-06   -0.12539E-05   112   0.149E-02    0.699E-03
DAV:   6    -0.102323081638E+03   -0.20617E-06   -0.14688E-06    88   0.497E-03
  12 F= -.10232308E+03 E0= -.10232308E+03  d E =-.163631E-02
       N       E                     dE             d eps       ncg     rms          rms(c)
DAV:   1    -0.102323086376E+03   -0.49445E-05   -0.46911E-04   100   0.989E-02    0.655E-03
DAV:   2    -0.102323088272E+03   -0.18960E-05   -0.12144E-05   120   0.138E-02    0.363E-03
DAV:   3    -0.102323089412E+03   -0.11398E-05   -0.63208E-07    88   0.351E-03    0.172E-03
DAV:   4    -0.102323091106E+03   -0.16943E-05   -0.39782E-07    88   0.242E-03    0.420E-04
DAV:   5    -0.102323092398E+03   -0.12919E-05   -0.10865E-07    88   0.134E-03    0.295E-04
DAV:   6    -0.102323093566E+03   -0.11675E-05   -0.43884E-08    88   0.741E-04    0.161E-04
DAV:   7    -0.102323094669E+03   -0.11032E-05   -0.28512E-08    88   0.504E-04    0.783E-05
DAV:   8    -0.102323095389E+03   -0.72048E-06   -0.16384E-08    88   0.357E-04
  13 F= -.10232310E+03 E0= -.10232310E+03  d E =-.165006E-02
       N       E                     dE             d eps       ncg     rms          rms(c)
DAV:   1    -0.102324850332E+03   -0.17557E-02   -0.14228E-01    84   0.169E+00    0.124E-01
DAV:   2    -0.102325042541E+03   -0.19221E-03   -0.35282E-03   112   0.232E-01    0.657E-02
DAV:   3    -0.102324983184E+03    0.59357E-04   -0.17721E-04   128   0.516E-02    0.327E-02
DAV:   4    -0.102324976030E+03    0.71538E-05   -0.60020E-05   112   0.255E-02    0.909E-03
DAV:   5    -0.102324975774E+03    0.25624E-06   -0.39173E-06   112   0.863E-03
  14 F= -.10232498E+03 E0= -.10232498E+03  d E =-.188038E-02
       N       E                     dE             d eps       ncg     rms          rms(c)
DAV:   1    -0.102325176992E+03   -0.20096E-03   -0.44680E-02    84   0.946E-01    0.699E-02
DAV:   2    -0.102325236661E+03   -0.59669E-04   -0.11293E-03   112   0.131E-01    0.366E-02
DAV:   3    -0.102325215994E+03    0.20667E-04   -0.55235E-05   128   0.288E-02    0.184E-02
DAV:   4    -0.102325213835E+03    0.21590E-05   -0.18852E-05   112   0.143E-02    0.508E-03
DAV:   5    -0.102325215658E+03   -0.18229E-05   -0.11720E-06    88   0.502E-03    0.243E-03
DAV:   6    -0.102325218173E+03   -0.25150E-05   -0.75567E-07    88   0.338E-03    0.980E-04
DAV:   7    -0.102325221492E+03   -0.33190E-05   -0.25667E-07    88   0.192E-03    0.414E-04
DAV:   8    -0.102325223545E+03   -0.20526E-05   -0.10721E-07    88   0.112E-03    0.417E-04
DAV:   9    -0.102325226747E+03   -0.32022E-05   -0.15828E-07    80   0.100E-03    0.131E-04
DAV:  10    -0.102325227920E+03   -0.11731E-05   -0.49369E-08    88   0.594E-04    0.109E-04
DAV:  11    -0.102325228767E+03   -0.84737E-06   -0.27007E-08    88   0.410E-04
  15 F= -.10232523E+03 E0= -.10232523E+03  d E =-.213338E-02
       N       E                     dE             d eps       ncg     rms          rms(c)
DAV:   1    -0.102325106058E+03    0.12186E-03   -0.49819E-02    84   0.969E-01    0.807E-02
DAV:   2    -0.102325292584E+03   -0.18653E-03   -0.23124E-03   120   0.186E-01    0.451E-02
DAV:   3    -0.102325269844E+03    0.22741E-04   -0.76853E-05   120   0.377E-02    0.248E-02
DAV:   4    -0.102325267545E+03    0.22989E-05   -0.37701E-05   112   0.251E-02    0.545E-03
DAV:   5    -0.102325267624E+03   -0.79363E-07   -0.67314E-06   112   0.108E-02
  16 F= -.10232527E+03 E0= -.10232527E+03  d E =-.388571E-04
       N       E                     dE             d eps       ncg     rms          rms(c)
DAV:   1    -0.102325413675E+03   -0.14613E-03   -0.11383E-02    84   0.463E-01    0.378E-02
DAV:   2    -0.102325457657E+03   -0.43981E-04   -0.51858E-04   120   0.886E-02    0.217E-02
DAV:   3    -0.102325454357E+03    0.32996E-05   -0.18082E-05   120   0.183E-02    0.121E-02
DAV:   4    -0.102325455754E+03   -0.13974E-05   -0.90381E-06   112   0.123E-02    0.261E-03
DAV:   5    -0.102325456235E+03   -0.48107E-06   -0.14978E-06    88   0.533E-03
  17 F= -.10232546E+03 E0= -.10232546E+03  d E =-.227468E-03
