       N       E                     dE             d eps       ncg     rms          rms(c)
DAV:   1     0.246063167780E+03    0.24606E+03   -0.10192E+04   120   0.484E+02
DAV:   2    -0.232735450875E+02   -0.26934E+03   -0.25523E+03   156   0.919E+01
DAV:   3    -0.104109266661E+03   -0.80836E+02   -0.80599E+02   120   0.554E+01
DAV:   4    -0.108075022727E+03   -0.39658E+01   -0.39522E+01   120   0.177E+01
DAV:   5    -0.108163359296E+03   -0.88337E-01   -0.88247E-01   156   0.293E+00    0.159E+01
DAV:   6    -0.104527846866E+03    0.36355E+01   -0.16772E+00   108   0.449E+00    0.917E+00
DAV:   7    -0.102680624464E+03    0.18472E+01   -0.45592E+00   120   0.657E+00    0.134E+00
DAV:   8    -0.102626773708E+03    0.53851E-01   -0.36425E-01   132   0.230E+00    0.725E-01
DAV:   9    -0.102590855938E+03    0.35918E-01   -0.67011E-02   144   0.709E-01    0.401E-01
DAV:  10    -0.102589640673E+03    0.12153E-02   -0.43650E-03   132   0.235E-01    0.150E-01
DAV:  11    -0.102588150029E+03    0.14906E-02   -0.66768E-03   120   0.221E-01    0.110E-01
DAV:  12    -0.102593859279E+03   -0.57092E-02   -0.14914E-03   132   0.109E-01    0.521E-02
DAV:  13    -0.102597206984E+03   -0.33477E-02   -0.20063E-03   132   0.111E-01    0.475E-02
DAV:  14    -0.102600321911E+03   -0.31149E-02   -0.18364E-04   144   0.474E-02    0.229E-02
DAV:  15    -0.102605470566E+03   -0.51487E-02   -0.58796E-04   120   0.590E-02    0.138E-02
DAV:  16    -0.102607100623E+03   -0.16301E-02   -0.11028E-04   132   0.311E-02    0.103E-02
DAV:  17    -0.102608403268E+03   -0.13026E-02   -0.11891E-04   108   0.248E-02    0.815E-03
DAV:  18    -0.102608722175E+03   -0.31891E-03   -0.94587E-06   132   0.806E-03    0.181E-03
DAV:  19    -0.102608978842E+03   -0.25667E-03   -0.12145E-05   108   0.761E-03    0.194E-03
DAV:  20    -0.102609042061E+03   -0.63219E-04   -0.12115E-06   108   0.328E-03    0.846E-04
DAV:  21    -0.102609067777E+03   -0.25716E-04   -0.57279E-07   108   0.185E-03    0.369E-04
DAV:  22    -0.102609080611E+03   -0.12834E-04   -0.30469E-07   108   0.124E-03    0.331E-04
DAV:  23    -0.102609083939E+03   -0.33280E-05   -0.50924E-08   108   0.574E-04    0.152E-04
DAV:  24    -0.102609087399E+03   -0.34602E-05   -0.51929E-08   108   0.549E-04    0.130E-04
DAV:  25    -0.102609088133E+03   -0.73348E-06   -0.55295E-09   108   0.291E-04
   1 F= -.10260909E+03 E0= -.10260909E+03  d E =-.499120E-10
       N       E                     dE             d eps       ncg     rms          rms(c)
DAV:   1    -0.102605538573E+03    0.35488E-02   -0.81204E-02   120   0.815E-01    0.135E-01
DAV:   2    -0.102605844317E+03   -0.30574E-03   -0.36461E-03   132   0.202E-01    0.569E-02
DAV:   3    -0.102605829219E+03    0.15098E-04   -0.14932E-04   144   0.450E-02    0.298E-02
DAV:   4    -0.102605832531E+03   -0.33124E-05   -0.35864E-05   132   0.220E-02    0.896E-03
DAV:   5    -0.102605831920E+03    0.61182E-06   -0.68275E-06   132   0.100E-02
   2 F= -.10260583E+03 E0= -.10260583E+03  d E =-.596749E-10
       N       E                     dE             d eps       ncg     rms          rms(c)
DAV:   1    -0.102604974689E+03    0.85784E-03   -0.32553E-01    96   0.163E+00    0.279E-01
DAV:   2    -0.102606196171E+03   -0.12215E-02   -0.14560E-02   132   0.402E-01    0.115E-01
DAV:   3    -0.102606138609E+03    0.57561E-04   -0.58580E-04   132   0.889E-02    0.628E-02
DAV:   4    -0.102606154450E+03   -0.15841E-04   -0.14544E-04   120   0.440E-02    0.183E-02
DAV:   5    -0.102606152936E+03    0.15148E-05   -0.28171E-05   132   0.204E-02    0.107E-02
DAV:   6    -0.102606152342E+03    0.59366E-06   -0.51499E-06   132   0.814E-03
   3 F= -.10260615E+03 E0= -.10260615E+03  d E =-.563507E-10
       N       E                     dE             d eps       ncg     rms          rms(c)
DAV:   1    -0.102605711804E+03    0.44113E-03   -0.16363E-01    96   0.114E+00    0.195E-01
DAV:   2    -0.102606257523E+03   -0.54572E-03   -0.67332E-03   132   0.277E-01    0.798E-02
DAV:   3    -0.102606233976E+03    0.23547E-04   -0.28126E-04   132   0.614E-02    0.422E-02
DAV:   4    -0.102606245359E+03   -0.11382E-04   -0.66292E-05   120   0.295E-02    0.127E-02
DAV:   5    -0.102606245419E+03   -0.60479E-07   -0.12243E-05   132   0.136E-02    0.741E-03
DAV:   6    -0.102606245682E+03   -0.26265E-06   -0.26832E-06   132   0.566E-03
   4 F= -.10260625E+03 E0= -.10260625E+03  d E =-.522468E-10
       N       E                     dE             d eps       ncg     rms          rms(c)
DAV:   1    -0.102604460683E+03    0.17847E-02   -0.32534E-01    96   0.163E+00    0.271E-01
DAV:   2    -0.102605710960E+03   -0.12503E-02   -0.14760E-02   132   0.409E-01    0.116E-01
DAV:   3    -0.102605650605E+03    0.60355E-04   -0.59025E-04   144   0.906E-02    0.612E-02
DAV:   4    -0.102605664981E+03   -0.14376E-04   -0.14842E-04   132   0.444E-02    0.181E-02
DAV:   5    -0.102605661711E+03    0.32706E-05   -0.26757E-05   132   0.197E-02    0.103E-02
DAV:   6    -0.102605661268E+03    0.44279E-06   -0.52942E-06   132   0.800E-03
   5 F= -.10260566E+03 E0= -.10260566E+03  d E =-.643727E-10
       N       E                     dE             d eps       ncg     rms          rms(c)
DAV:   1    -0.102603850842E+03    0.18109E-02   -0.16223E-01    96   0.116E+00    0.188E-01
DAV:   2    -0.102604671008E+03   -0.82017E-03   -0.91883E-03   132   0.317E-01    0.946E-02
DAV:   3    -0.102604624284E+03    0.46724E-04   -0.32992E-04   144   0.690E-02    0.509E-02
DAV:   4    -0.102604631248E+03   -0.69643E-05   -0.11242E-04   132   0.372E-02    0.138E-02
DAV:   5    -0.102604629772E+03    0.14769E-05   -0.17479E-05   132   0.154E-02    0.775E-03
DAV:   6    -0.102604631489E+03   -0.17174E-05   -0.33053E-06   132   0.591E-03    0.479E-03
DAV:   7    -0.102604636849E+03   -0.53598E-05   -0.45512E-07   108   0.233E-03    0.158E-03
DAV:   8    -0.102604641585E+03   -0.47359E-05   -0.35950E-07   108   0.194E-03    0.656E-04
DAV:   9    -0.102604647068E+03   -0.54830E-05   -0.31501E-07   108   0.162E-03    0.541E-04
DAV:  10    -0.102604654029E+03   -0.69613E-05   -0.62332E-07   120   0.169E-03    0.505E-04
DAV:  11    -0.102604654950E+03   -0.92133E-06   -0.30039E-08   120   0.715E-04
   6 F= -.10260465E+03 E0= -.10260465E+03  d E =-.602480E-10
       N       E                     dE             d eps       ncg     rms          rms(c)
DAV:   1    -0.102602792613E+03    0.18614E-02   -0.33210E-01    96   0.160E+00    0.271E-01
DAV:   2    -0.102604990621E+03   -0.21980E-02   -0.24119E-02   120   0.480E-01    0.169E-01
DAV:   3    -0.102604816681E+03    0.17394E-03   -0.74784E-04   132   0.106E-01    0.861E-02
DAV:   4    -0.102604823491E+03   -0.68103E-05   -0.42631E-04   120   0.662E-02    0.172E-02
DAV:   5    -0.102604812539E+03    0.10952E-04   -0.49794E-05   132   0.244E-02    0.114E-02
DAV:   6    -0.102604812721E+03   -0.18197E-06   -0.10592E-05   108   0.836E-03    0.709E-03
DAV:   7    -0.102604824071E+03   -0.11350E-04   -0.11123E-06   132   0.340E-03    0.285E-03
DAV:   8    -0.102604841100E+03   -0.17030E-04   -0.18697E-06   132   0.430E-03    0.144E-03
DAV:   9    -0.102604853165E+03   -0.12065E-04   -0.84591E-07   132   0.215E-03    0.152E-03
DAV:  10    -0.102604874020E+03   -0.20855E-04   -0.11909E-06   120   0.223E-03    0.769E-04
DAV:  11    -0.102604878122E+03   -0.41017E-05   -0.12463E-07   108   0.948E-04    0.470E-04
DAV:  12    -0.102604886344E+03   -0.82217E-05   -0.23284E-07   108   0.104E-03    0.294E-04
DAV:  13    -0.102604889307E+03   -0.29631E-05   -0.87346E-08   108   0.580E-04    0.232E-04
DAV:  14    -0.102604891521E+03   -0.22139E-05   -0.21329E-08   108   0.400E-04    0.739E-05
DAV:  15    -0.102604892434E+03   -0.91345E-06   -0.81073E-09   108   0.255E-04
   7 F= -.10260489E+03 E0= -.10260489E+03  d E =-.581106E-10
       N       E                     dE             d eps       ncg     rms          rms(c)
DAV:   1    -0.102603734548E+03    0.11570E-02   -0.18966E-01    96   0.132E+00    0.197E-01
DAV:   2    -0.102605128456E+03   -0.13939E-02   -0.14560E-02   120   0.421E-01    0.119E-01
DAV:   3    -0.102605051695E+03    0.76761E-04   -0.42398E-04   144   0.857E-02    0.644E-02
DAV:   4    -0.102605051537E+03    0.15763E-06   -0.20399E-04   132   0.534E-02    0.132E-02
DAV:   5    -0.102605046832E+03    0.47049E-05   -0.35870E-05   132   0.211E-02    0.930E-03
DAV:   6    -0.102605047486E+03   -0.65427E-06   -0.36952E-06   132   0.630E-03
   8 F= -.10260505E+03 E0= -.10260505E+03  d E =-.631125E-10
       N       E                     dE             d eps       ncg     rms          rms(c)
DAV:   1    -0.102603143136E+03    0.19037E-02   -0.33958E-01    96   0.180E+00    0.255E-01
DAV:   2    -0.102605161160E+03   -0.20180E-02   -0.20748E-02   132   0.519E-01    0.152E-01
DAV:   3    -0.102605104123E+03    0.57037E-04   -0.52133E-04   132   0.914E-02    0.826E-02
DAV:   4    -0.102605098336E+03    0.57871E-05   -0.22364E-04   132   0.583E-02    0.152E-02
DAV:   5    -0.102605088602E+03    0.97343E-05   -0.44225E-05   144   0.256E-02    0.106E-02
DAV:   6    -0.102605088381E+03    0.22155E-06   -0.77112E-06   132   0.996E-03
   9 F= -.10260509E+03 E0= -.10260509E+03  d E =-.585460E-10
       N       E                     dE             d eps       ncg     rms          rms(c)
DAV:   1    -0.102602957810E+03    0.21308E-02   -0.17214E-01    96   0.131E+00    0.184E-01
DAV:   2    -0.102604089128E+03   -0.11313E-02   -0.11309E-02   132   0.382E-01    0.115E-01
DAV:   3    -0.102604070356E+03    0.18772E-04   -0.27005E-04   132   0.687E-02    0.638E-02
DAV:   4    -0.102604089838E+03   -0.19482E-04   -0.15623E-04   120   0.489E-02    0.115E-02
DAV:   5    -0.102604085983E+03    0.38552E-05   -0.35169E-05   132   0.221E-02    0.830E-03
DAV:   6    -0.102604086722E+03   -0.73883E-06   -0.57028E-06   144   0.727E-03
  10 F= -.10260409E+03 E0= -.10260409E+03  d E =-.448185E-11
       N       E                     dE             d eps       ncg     rms          rms(c)
DAV:   1    -0.102601904198E+03    0.21818E-02   -0.35092E-01    96   0.186E+00    0.278E-01
DAV:   2    -0.102604419051E+03   -0.25149E-02   -0.25490E-02   132   0.579E-01    0.178E-01
DAV:   3    -0.102604299838E+03    0.11921E-03   -0.65592E-04   132   0.113E-01    0.879E-02
DAV:   4    -0.102604326568E+03   -0.26730E-04   -0.43495E-04   132   0.781E-02    0.173E-02
DAV:   5    -0.102604311425E+03    0.15143E-04   -0.69865E-05   132   0.316E-02    0.113E-02
DAV:   6    -0.102604312083E+03   -0.65766E-06   -0.13444E-05   132   0.105E-02    0.588E-03
DAV:   7    -0.102604325166E+03   -0.13083E-04   -0.11006E-06   120   0.340E-03    0.269E-03
DAV:   8    -0.102604346092E+03   -0.20925E-04   -0.35573E-06   120   0.530E-03    0.172E-03
DAV:   9    -0.102604358535E+03   -0.12443E-04   -0.10846E-06   120   0.292E-03    0.146E-03
DAV:  10    -0.102604373754E+03   -0.15220E-04   -0.12172E-06   120   0.252E-03    0.382E-04
DAV:  11    -0.102604378667E+03   -0.49127E-05   -0.18084E-07   108   0.117E-03    0.353E-04
DAV:  12    -0.102604385074E+03   -0.64073E-05   -0.25838E-07    96   0.109E-03    0.134E-04
DAV:  13    -0.102604387094E+03   -0.20195E-05   -0.61782E-08   108   0.539E-04    0.133E-04
DAV:  14    -0.102604389103E+03   -0.20097E-05   -0.29216E-08   108   0.441E-04    0.749E-05
DAV:  15    -0.102604389651E+03   -0.54747E-06   -0.61216E-09   108   0.242E-04
  11 F= -.10260439E+03 E0= -.10260439E+03  d E =-.392512E-10
       N       E                     dE             d eps       ncg     rms          rms(c)
DAV:   1    -0.102604705455E+03   -0.31635E-03   -0.17305E-01    96   0.129E+00    0.179E-01
DAV:   2    -0.102605839346E+03   -0.11339E-02   -0.11683E-02   132   0.389E-01    0.118E-01
DAV:   3    -0.102605785294E+03    0.54052E-04   -0.31583E-04   144   0.769E-02    0.552E-02
DAV:   4    -0.102605790811E+03   -0.55170E-05   -0.17743E-04   132   0.488E-02    0.120E-02
DAV:   5    -0.102605784905E+03    0.59059E-05   -0.22405E-05   132   0.180E-02    0.787E-03
DAV:   6    -0.102605788269E+03   -0.33641E-05   -0.73408E-06   132   0.808E-03    0.387E-03
DAV:   7    -0.102605798717E+03   -0.10448E-04   -0.88411E-07   108   0.348E-03    0.160E-03
DAV:   8    -0.102605813374E+03   -0.14657E-04   -0.16952E-06   120   0.355E-03    0.106E-03
DAV:   9    -0.102605825388E+03   -0.12014E-04   -0.82535E-07   108   0.245E-03    0.782E-04
DAV:  10    -0.102605836066E+03   -0.10678E-04   -0.10228E-06   120   0.206E-03    0.263E-04
DAV:  11    -0.102605840512E+03   -0.44454E-05   -0.15752E-07   108   0.971E-04    0.210E-04
DAV:  12    -0.102605843218E+03   -0.27065E-05   -0.87755E-08   108   0.632E-04    0.128E-04
DAV:  13    -0.102605844793E+03   -0.15749E-05   -0.37297E-08   108   0.427E-04    0.814E-05
DAV:  14    -0.102605845700E+03   -0.90729E-06   -0.80228E-09   108   0.254E-04
  12 F= -.10260585E+03 E0= -.10260585E+03  d E =-.546944E-10
       N       E                     dE             d eps       ncg     rms          rms(c)
DAV:   1    -0.102603894139E+03    0.19507E-02   -0.32794E-01    96   0.172E+00    0.218E-01
DAV:   2    -0.102605705545E+03   -0.18114E-02   -0.18600E-02   132   0.475E-01    0.128E-01
DAV:   3    -0.102605684358E+03    0.21187E-04   -0.49097E-04   132   0.878E-02    0.679E-02
DAV:   4    -0.102605694324E+03   -0.99663E-05   -0.16926E-04   132   0.536E-02    0.137E-02
DAV:   5    -0.102605687243E+03    0.70817E-05   -0.39533E-05   132   0.245E-02    0.102E-02
DAV:   6    -0.102605687553E+03   -0.31055E-06   -0.68030E-06   132   0.868E-03
  13 F= -.10260569E+03 E0= -.10260569E+03  d E =-.710779E-10
       N       E                     dE             d eps       ncg     rms          rms(c)
DAV:   1    -0.102603165918E+03    0.25213E-02   -0.16648E-01    96   0.129E+00    0.172E-01
DAV:   2    -0.102604530012E+03   -0.13641E-02   -0.13983E-02   132   0.408E-01    0.115E-01
DAV:   3    -0.102604486352E+03    0.43659E-04   -0.34388E-04   144   0.759E-02    0.683E-02
DAV:   4    -0.102604506760E+03   -0.20407E-04   -0.18198E-04   132   0.556E-02    0.128E-02
DAV:   5    -0.102604506871E+03   -0.11090E-06   -0.55340E-05   132   0.273E-02    0.103E-02
DAV:   6    -0.102604505421E+03    0.14493E-05   -0.52997E-06   132   0.802E-03    0.730E-03
DAV:   7    -0.102604508694E+03   -0.32722E-05   -0.20515E-06   132   0.542E-03    0.278E-03
DAV:   8    -0.102604514168E+03   -0.54744E-05   -0.60552E-07   108   0.358E-03    0.776E-04
DAV:   9    -0.102604520877E+03   -0.67086E-05   -0.55957E-07   108   0.243E-03    0.108E-03
DAV:  10    -0.102604529866E+03   -0.89898E-05   -0.49510E-07   108   0.183E-03    0.358E-04
DAV:  11    -0.102604531968E+03   -0.21015E-05   -0.95943E-08   108   0.866E-04    0.287E-04
DAV:  12    -0.102604535109E+03   -0.31415E-05   -0.77173E-08   108   0.669E-04    0.129E-04
DAV:  13    -0.102604537493E+03   -0.23836E-05   -0.74512E-08   108   0.570E-04    0.135E-04
DAV:  14    -0.102604538835E+03   -0.13421E-05   -0.22837E-08   108   0.344E-04    0.103E-04
DAV:  15    -0.102604539565E+03   -0.73009E-06   -0.51448E-09   108   0.234E-04
  14 F= -.10260454E+03 E0= -.10260454E+03  d E =-.715547E-10
       N       E                     dE             d eps       ncg     rms          rms(c)
DAV:   1    -0.102602093676E+03    0.24452E-02   -0.34276E-01    96   0.168E+00    0.260E-01
DAV:   2    -0.102604615389E+03   -0.25217E-02   -0.25772E-02   132   0.528E-01    0.175E-01
DAV:   3    -0.102604494596E+03    0.12079E-03   -0.58686E-04   156   0.990E-02    0.961E-02
DAV:   4    -0.102604493845E+03    0.75097E-06   -0.38472E-04   132   0.733E-02    0.176E-02
DAV:   5    -0.102604485111E+03    0.87334E-05   -0.89932E-05   132   0.337E-02    0.127E-02
DAV:   6    -0.102604489040E+03   -0.39289E-05   -0.15163E-05   132   0.108E-02    0.827E-03
DAV:   7    -0.102604509724E+03   -0.20684E-04   -0.21277E-06   132   0.487E-03    0.354E-03
DAV:   8    -0.102604537602E+03   -0.27878E-04   -0.30838E-06   132   0.485E-03    0.116E-03
DAV:   9    -0.102604558262E+03   -0.20661E-04   -0.21627E-06   132   0.356E-03    0.180E-03
DAV:  10    -0.102604580041E+03   -0.21778E-04   -0.18991E-06   132   0.310E-03    0.564E-04
DAV:  11    -0.102604585176E+03   -0.51358E-05   -0.19718E-07   108   0.121E-03    0.344E-04
DAV:  12    -0.102604591676E+03   -0.65001E-05   -0.26184E-07   108   0.106E-03    0.152E-04
DAV:  13    -0.102604594253E+03   -0.25765E-05   -0.94608E-08   108   0.599E-04    0.223E-04
DAV:  14    -0.102604596184E+03   -0.19316E-05   -0.35432E-08   108   0.441E-04    0.106E-04
DAV:  15    -0.102604596831E+03   -0.64653E-06   -0.68559E-09   108   0.248E-04
  15 F= -.10260460E+03 E0= -.10260460E+03  d E =-.480979E-10
       N       E                     dE             d eps       ncg     rms          rms(c)
DAV:   1    -0.102603803523E+03    0.79266E-03   -0.17331E-01    96   0.118E+00    0.185E-01
DAV:   2    -0.102605115876E+03   -0.13124E-02   -0.13415E-02   132   0.378E-01    0.129E-01
DAV:   3    -0.102605040591E+03    0.75285E-04   -0.31877E-04   156   0.740E-02    0.654E-02
DAV:   4    -0.102605045743E+03   -0.51521E-05   -0.21358E-04   120   0.525E-02    0.124E-02
DAV:   5    -0.102605036988E+03    0.87550E-05   -0.39200E-05   132   0.219E-02    0.793E-03
DAV:   6    -0.102605039867E+03   -0.28794E-05   -0.66927E-06   132   0.678E-03    0.453E-03
DAV:   7    -0.102605052421E+03   -0.12553E-04   -0.62705E-07   108   0.223E-03    0.212E-03
DAV:   8    -0.102605069629E+03   -0.17209E-04   -0.26657E-06   132   0.430E-03    0.144E-03
DAV:   9    -0.102605079507E+03   -0.98783E-05   -0.73821E-07   120   0.234E-03    0.120E-03
DAV:  10    -0.102605092296E+03   -0.12788E-04   -0.94541E-07   108   0.206E-03    0.487E-04
DAV:  11    -0.102605095555E+03   -0.32593E-05   -0.10943E-07   108   0.920E-04    0.314E-04
DAV:  12    -0.102605099643E+03   -0.40877E-05   -0.11180E-07   108   0.762E-04    0.135E-04
DAV:  13    -0.102605101335E+03   -0.16926E-05   -0.44922E-08   108   0.450E-04    0.142E-04
DAV:  14    -0.102605102543E+03   -0.12077E-05   -0.10491E-08   108   0.307E-04    0.811E-05
DAV:  15    -0.102605103042E+03   -0.49862E-06   -0.31657E-09   108   0.209E-04
  16 F= -.10260510E+03 E0= -.10260510E+03  d E =-.461694E-10
       N       E                     dE             d eps       ncg     rms          rms(c)
DAV:   1    -0.102603086045E+03    0.20165E-02   -0.34032E-01    96   0.168E+00    0.257E-01
DAV:   2    -0.102605091210E+03   -0.20052E-02   -0.20815E-02   132   0.469E-01    0.153E-01
DAV:   3    -0.102605011496E+03    0.79715E-04   -0.54175E-04   132   0.919E-02    0.797E-02
DAV:   4    -0.102605017018E+03   -0.55225E-05   -0.28122E-04   132   0.626E-02    0.166E-02
DAV:   5    -0.102605006612E+03    0.10406E-04   -0.55787E-05   132   0.278E-02    0.115E-02
DAV:   6    -0.102605006469E+03    0.14308E-06   -0.11819E-05   132   0.101E-02    0.691E-03
DAV:   7    -0.102605016245E+03   -0.97756E-05   -0.12996E-06   120   0.468E-03    0.287E-03
DAV:   8    -0.102605031353E+03   -0.15108E-04   -0.17631E-06   132   0.459E-03    0.125E-03
DAV:   9    -0.102605046055E+03   -0.14701E-04   -0.10704E-06   132   0.300E-03    0.139E-03
DAV:  10    -0.102605063112E+03   -0.17058E-04   -0.84489E-07   120   0.220E-03    0.540E-04
DAV:  11    -0.102605068609E+03   -0.54963E-05   -0.15469E-07   108   0.110E-03    0.372E-04
DAV:  12    -0.102605076075E+03   -0.74666E-05   -0.18354E-07   108   0.921E-04    0.194E-04
DAV:  13    -0.102605079705E+03   -0.36296E-05   -0.95166E-08   108   0.610E-04    0.221E-04
DAV:  14    -0.102605081964E+03   -0.22591E-05   -0.23675E-08   108   0.384E-04    0.114E-04
DAV:  15    -0.102605083003E+03   -0.10387E-05   -0.97691E-09   108   0.259E-04    0.431E-05
DAV:  16    -0.102605083782E+03   -0.77874E-06   -0.18688E-09   108   0.207E-04
  17 F= -.10260508E+03 E0= -.10260508E+03  d E =-.743905E-10
       N       E                     dE             d eps       ncg     rms          rms(c)
DAV:   1    -0.102604458013E+03    0.62499E-03   -0.17026E-01    96   0.119E+00    0.172E-01
DAV:   2    -0.102605548593E+03   -0.10906E-02   -0.11241E-02   132   0.337E-01    0.116E-01
DAV:   3    -0.102605501043E+03    0.47550E-04   -0.26023E-04   132   0.609E-02    0.635E-02
DAV:   4    -0.102605484728E+03    0.16314E-04   -0.13024E-04   132   0.402E-02    0.108E-02
DAV:   5    -0.102605481544E+03    0.31849E-05   -0.19939E-05   132   0.160E-02    0.771E-03
DAV:   6    -0.102605486619E+03   -0.50752E-05   -0.63729E-06   132   0.819E-03    0.438E-03
DAV:   7    -0.102605503523E+03   -0.16904E-04   -0.25312E-06   132   0.523E-03    0.159E-03
DAV:   8    -0.102605520664E+03   -0.17140E-04   -0.10929E-06   108   0.311E-03    0.991E-04
DAV:   9    -0.102605540265E+03   -0.19601E-04   -0.18198E-06   120   0.299E-03    0.789E-04
DAV:  10    -0.102605553209E+03   -0.12944E-04   -0.11173E-06   120   0.212E-03    0.383E-04
DAV:  11    -0.102605558088E+03   -0.48794E-05   -0.20056E-07   108   0.999E-04    0.184E-04
DAV:  12    -0.102605562100E+03   -0.40115E-05   -0.25547E-07   108   0.918E-04    0.172E-04
DAV:  13    -0.102605563233E+03   -0.11327E-05   -0.25061E-08   120   0.368E-04    0.709E-05
DAV:  14    -0.102605564075E+03   -0.84228E-06   -0.17130E-08   108   0.314E-04
  18 F= -.10260556E+03 E0= -.10260556E+03  d E =-.584262E-10
       N       E                     dE             d eps       ncg     rms          rms(c)
DAV:   1    -0.102603468868E+03    0.20944E-02   -0.32810E-01    96   0.159E+00    0.216E-01
DAV:   2    -0.102605367219E+03   -0.18984E-02   -0.19471E-02   132   0.442E-01    0.141E-01
DAV:   3    -0.102605329911E+03    0.37308E-04   -0.48926E-04   132   0.838E-02    0.742E-02
DAV:   4    -0.102605322638E+03    0.72732E-05   -0.16239E-04   132   0.508E-02    0.135E-02
DAV:   5    -0.102605312556E+03    0.10082E-04   -0.34049E-05   132   0.230E-02    0.887E-03
DAV:   6    -0.102605314161E+03   -0.16053E-05   -0.74230E-06   132   0.889E-03    0.574E-03
DAV:   7    -0.102605326904E+03   -0.12743E-04   -0.18174E-06   132   0.572E-03    0.213E-03
DAV:   8    -0.102605343413E+03   -0.16509E-04   -0.15790E-06   120   0.533E-03    0.156E-03
DAV:   9    -0.102605359660E+03   -0.16247E-04   -0.11984E-06   120   0.345E-03    0.142E-03
DAV:  10    -0.102605373218E+03   -0.13558E-04   -0.49636E-07   108   0.175E-03    0.613E-04
DAV:  11    -0.102605383158E+03   -0.99404E-05   -0.44570E-07   108   0.144E-03    0.318E-04
DAV:  12    -0.102605391519E+03   -0.83611E-05   -0.28712E-07   108   0.107E-03    0.220E-04
DAV:  13    -0.102605395048E+03   -0.35285E-05   -0.85670E-08   108   0.586E-04    0.166E-04
DAV:  14    -0.102605397296E+03   -0.22486E-05   -0.25386E-08   108   0.396E-04    0.582E-05
DAV:  15    -0.102605398507E+03   -0.12110E-05   -0.16840E-08   108   0.282E-04    0.467E-05
DAV:  16    -0.102605399178E+03   -0.67129E-06   -0.35527E-10   108   0.178E-04
  19 F= -.10260540E+03 E0= -.10260540E+03  d E =-.594303E-10
       N       E                     dE             d eps       ncg     rms          rms(c)
DAV:   1    -0.102603170289E+03    0.22282E-02   -0.16669E-01    96   0.132E+00    0.165E-01
DAV:   2    -0.102604557597E+03   -0.13873E-02   -0.14097E-02   132   0.419E-01    0.117E-01
DAV:   3    -0.102604507844E+03    0.49753E-04   -0.29734E-04   156   0.707E-02    0.713E-02
DAV:   4    -0.102604496978E+03    0.10866E-04   -0.17466E-04   132   0.545E-02    0.109E-02
DAV:   5    -0.102604493853E+03    0.31247E-05   -0.54604E-05   132   0.273E-02    0.868E-03
DAV:   6    -0.102604493904E+03   -0.50291E-07   -0.55905E-06   132   0.816E-03
  20 F= -.10260449E+03 E0= -.10260449E+03  d E =-.358800E-10
       N       E                     dE             d eps       ncg     rms          rms(c)
DAV:   1    -0.102602038916E+03    0.24549E-02   -0.34833E-01    96   0.184E+00    0.279E-01
DAV:   2    -0.102604406168E+03   -0.23673E-02   -0.24018E-02   132   0.568E-01    0.173E-01
DAV:   3    -0.102604320169E+03    0.86000E-04   -0.60943E-04   156   0.107E-01    0.912E-02
DAV:   4    -0.102604344411E+03   -0.24243E-04   -0.37213E-04   132   0.737E-02    0.183E-02
DAV:   5    -0.102604333390E+03    0.11021E-04   -0.68264E-05   132   0.308E-02    0.115E-02
DAV:   6    -0.102604335329E+03   -0.19387E-05   -0.12925E-05   132   0.104E-02    0.699E-03
DAV:   7    -0.102604350357E+03   -0.15028E-04   -0.12105E-06   108   0.409E-03    0.307E-03
DAV:   8    -0.102604372286E+03   -0.21929E-04   -0.30775E-06   120   0.498E-03    0.141E-03
DAV:   9    -0.102604384997E+03   -0.12711E-04   -0.12874E-06   120   0.308E-03    0.156E-03
DAV:  10    -0.102604400397E+03   -0.15400E-04   -0.10337E-06   108   0.239E-03    0.608E-04
DAV:  11    -0.102604406017E+03   -0.56201E-05   -0.29484E-07   108   0.135E-03    0.363E-04
DAV:  12    -0.102604411260E+03   -0.52426E-05   -0.20522E-07   108   0.999E-04    0.149E-04
DAV:  13    -0.102604413927E+03   -0.26671E-05   -0.11083E-07   108   0.668E-04    0.197E-04
DAV:  14    -0.102604415666E+03   -0.17389E-05   -0.36730E-08   108   0.459E-04    0.863E-05
DAV:  15    -0.102604416276E+03   -0.60972E-06   -0.10183E-08   108   0.265E-04
  21 F= -.10260442E+03 E0= -.10260442E+03  d E =-.442824E-11
       N       E                     dE             d eps       ncg     rms          rms(c)
DAV:   1    -0.102603807094E+03    0.60857E-03   -0.17051E-01    96   0.127E+00    0.179E-01
DAV:   2    -0.102604797518E+03   -0.99042E-03   -0.10267E-02   132   0.367E-01    0.107E-01
DAV:   3    -0.102604760543E+03    0.36975E-04   -0.25570E-04   132   0.647E-02    0.575E-02
DAV:   4    -0.102604756556E+03    0.39872E-05   -0.11600E-04   132   0.418E-02    0.108E-02
DAV:   5    -0.102604750462E+03    0.60945E-05   -0.22573E-05   132   0.185E-02    0.747E-03
DAV:   6    -0.102604750220E+03    0.24181E-06   -0.46437E-06   132   0.749E-03
  22 F= -.10260475E+03 E0= -.10260475E+03  d E =-.625163E-10
       N       E                     dE             d eps       ncg     rms          rms(c)
DAV:   1    -0.102602695962E+03    0.20545E-02   -0.34209E-01    96   0.184E+00    0.263E-01
DAV:   2    -0.102604943158E+03   -0.22472E-02   -0.22704E-02   132   0.539E-01    0.161E-01
DAV:   3    -0.102604879680E+03    0.63478E-04   -0.52448E-04   132   0.931E-02    0.920E-02
DAV:   4    -0.102604868046E+03    0.11634E-04   -0.26546E-04   132   0.633E-02    0.162E-02
DAV:   5    -0.102604859926E+03    0.81200E-05   -0.54844E-05   144   0.276E-02    0.116E-02
DAV:   6    -0.102604863433E+03   -0.35078E-05   -0.99609E-06   132   0.109E-02    0.733E-03
DAV:   7    -0.102604884992E+03   -0.21558E-04   -0.38087E-06   132   0.741E-03    0.251E-03
DAV:   8    -0.102604907329E+03   -0.22337E-04   -0.19953E-06   120   0.507E-03    0.128E-03
DAV:   9    -0.102604926602E+03   -0.19273E-04   -0.16250E-06   120   0.352E-03    0.131E-03
DAV:  10    -0.102604946321E+03   -0.19719E-04   -0.18384E-06   108   0.283E-03    0.512E-04
DAV:  11    -0.102604950060E+03   -0.37393E-05   -0.14103E-07   108   0.120E-03    0.435E-04
DAV:  12    -0.102604957436E+03   -0.73753E-05   -0.44110E-07   108   0.145E-03    0.194E-04
DAV:  13    -0.102604959177E+03   -0.17416E-05   -0.91878E-08   108   0.713E-04    0.206E-04
DAV:  14    -0.102604960621E+03   -0.14437E-05   -0.26057E-08   108   0.503E-04    0.114E-04
DAV:  15    -0.102604961455E+03   -0.83451E-06   -0.22653E-08   108   0.356E-04
  23 F= -.10260496E+03 E0= -.10260496E+03  d E =-.583262E-10
       N       E                     dE             d eps       ncg     rms          rms(c)
DAV:   1    -0.102604977561E+03   -0.16940E-04   -0.16846E-01    96   0.124E+00    0.171E-01
DAV:   2    -0.102605840880E+03   -0.86332E-03   -0.90044E-03   132   0.334E-01    0.946E-02
DAV:   3    -0.102605820790E+03    0.20090E-04   -0.27054E-04   132   0.654E-02    0.488E-02
DAV:   4    -0.102605829709E+03   -0.89190E-05   -0.10416E-04   132   0.414E-02    0.109E-02
DAV:   5    -0.102605826376E+03    0.33332E-05   -0.23030E-05   132   0.183E-02    0.816E-03
DAV:   6    -0.102605826266E+03    0.11019E-06   -0.43675E-06   132   0.673E-03
  24 F= -.10260583E+03 E0= -.10260583E+03  d E =-.597237E-10
       N       E                     dE             d eps       ncg     rms          rms(c)
DAV:   1    -0.102603900093E+03    0.19263E-02   -0.32780E-01    96   0.172E+00    0.218E-01
DAV:   2    -0.102605710103E+03   -0.18100E-02   -0.18521E-02   132   0.473E-01    0.128E-01
DAV:   3    -0.102605696323E+03    0.13780E-04   -0.49299E-04   132   0.876E-02    0.677E-02
DAV:   4    -0.102605716436E+03   -0.20113E-04   -0.16867E-04   132   0.530E-02    0.137E-02
DAV:   5    -0.102605712171E+03    0.42651E-05   -0.37961E-05   132   0.239E-02    0.102E-02
DAV:   6    -0.102605713600E+03   -0.14288E-05   -0.66538E-06   132   0.857E-03    0.695E-03
DAV:   7    -0.102605721059E+03   -0.74595E-05   -0.96035E-07   108   0.472E-03    0.273E-03
DAV:   8    -0.102605730738E+03   -0.96787E-05   -0.16476E-06   120   0.530E-03    0.147E-03
DAV:   9    -0.102605743010E+03   -0.12272E-04   -0.94974E-07   108   0.358E-03    0.964E-04
DAV:  10    -0.102605752621E+03   -0.96112E-05   -0.59215E-07   108   0.224E-03    0.853E-04
DAV:  11    -0.102605756847E+03   -0.42259E-05   -0.15369E-07   108   0.125E-03    0.595E-04
DAV:  12    -0.102605762622E+03   -0.57751E-05   -0.17349E-07   108   0.106E-03    0.211E-04
DAV:  13    -0.102605764858E+03   -0.22365E-05   -0.57489E-08   108   0.580E-04    0.261E-04
DAV:  14    -0.102605766919E+03   -0.20610E-05   -0.28186E-08   108   0.419E-04    0.958E-05
DAV:  15    -0.102605768019E+03   -0.10994E-05   -0.17738E-08   108   0.311E-04    0.652E-05
DAV:  16    -0.102605768710E+03   -0.69125E-06   -0.12405E-09   108   0.203E-04
  25 F= -.10260577E+03 E0= -.10260577E+03  d E =-.648579E-10
       N       E                     dE             d eps       ncg     rms          rms(c)
DAV:   1    -0.102603439431E+03    0.23286E-02   -0.16939E-01    96   0.131E+00    0.158E-01
DAV:   2    -0.102604656257E+03   -0.12168E-02   -0.12525E-02   132   0.394E-01    0.105E-01
DAV:   3    -0.102604621318E+03    0.34940E-04   -0.27739E-04   144   0.670E-02    0.599E-02
DAV:   4    -0.102604607446E+03    0.13871E-04   -0.12195E-04   132   0.449E-02    0.963E-03
DAV:   5    -0.102604602100E+03    0.53467E-05   -0.31572E-05   132   0.211E-02    0.772E-03
DAV:   6    -0.102604601257E+03    0.84293E-06   -0.44230E-06   132   0.761E-03
  26 F= -.10260460E+03 E0= -.10260460E+03  d E =-.457942E-10
       N       E                     dE             d eps       ncg     rms          rms(c)
DAV:   1    -0.102602500474E+03    0.21016E-02   -0.34772E-01    96   0.183E+00    0.222E-01
DAV:   2    -0.102604810102E+03   -0.23096E-02   -0.23047E-02   132   0.547E-01    0.163E-01
DAV:   3    -0.102604769109E+03    0.40993E-04   -0.46876E-04   132   0.904E-02    0.890E-02
DAV:   4    -0.102604753393E+03    0.15716E-04   -0.27036E-04   132   0.611E-02    0.149E-02
DAV:   5    -0.102604743780E+03    0.96132E-05   -0.46168E-05   132   0.250E-02    0.105E-02
DAV:   6    -0.102604746906E+03   -0.31264E-05   -0.14590E-05   132   0.124E-02    0.629E-03
DAV:   7    -0.102604767375E+03   -0.20469E-04   -0.37730E-06   132   0.694E-03    0.231E-03
DAV:   8    -0.102604792054E+03   -0.24680E-04   -0.23522E-06   108   0.497E-03    0.113E-03
DAV:   9    -0.102604816190E+03   -0.24136E-04   -0.28091E-06   108   0.424E-03    0.124E-03
DAV:  10    -0.102604834231E+03   -0.18040E-04   -0.16016E-06   120   0.295E-03    0.479E-04
DAV:  11    -0.102604840573E+03   -0.63419E-05   -0.28938E-07   108   0.128E-03    0.273E-04
DAV:  12    -0.102604844783E+03   -0.42100E-05   -0.18291E-07   108   0.908E-04    0.178E-04
DAV:  13    -0.102604846901E+03   -0.21187E-05   -0.57206E-08   108   0.551E-04    0.925E-05
DAV:  14    -0.102604847941E+03   -0.10399E-05   -0.17153E-08   108   0.346E-04    0.505E-05
DAV:  15    -0.102604848536E+03   -0.59456E-06   -0.28723E-09   108   0.216E-04
  27 F= -.10260485E+03 E0= -.10260485E+03  d E =-.808845E-10
       N       E                     dE             d eps       ncg     rms          rms(c)
DAV:   1    -0.102605066015E+03   -0.21807E-03   -0.17130E-01    96   0.126E+00    0.152E-01
DAV:   2    -0.102606086077E+03   -0.10201E-02   -0.10333E-02   132   0.358E-01    0.101E-01
DAV:   3    -0.102606060753E+03    0.25323E-04   -0.22254E-04   144   0.621E-02    0.530E-02
DAV:   4    -0.102606059178E+03    0.15759E-05   -0.11171E-04   132   0.417E-02    0.101E-02
DAV:   5    -0.102606053777E+03    0.54003E-05   -0.25189E-05   132   0.189E-02    0.680E-03
DAV:   6    -0.102606054039E+03   -0.26215E-06   -0.49009E-06   132   0.689E-03
  28 F= -.10260605E+03 E0= -.10260605E+03  d E =-.424191E-10
       N       E                     dE             d eps       ncg     rms          rms(c)
DAV:   1    -0.102604386867E+03    0.16669E-02   -0.33889E-01    96   0.170E+00    0.193E-01
DAV:   2    -0.102606007017E+03   -0.16201E-02   -0.16225E-02   132   0.418E-01    0.112E-01
DAV:   3    -0.102606031811E+03   -0.24794E-04   -0.41913E-04   132   0.825E-02    0.553E-02
DAV:   4    -0.102606062920E+03   -0.31110E-04   -0.13100E-04   132   0.498E-02    0.129E-02
DAV:   5    -0.102606062615E+03    0.30578E-06   -0.34000E-05   132   0.219E-02    0.887E-03
DAV:   6    -0.102606064270E+03   -0.16553E-05   -0.58598E-06   132   0.774E-03    0.528E-03
DAV:   7    -0.102606068390E+03   -0.41195E-05   -0.67677E-07   108   0.348E-03    0.198E-03
DAV:   8    -0.102606073533E+03   -0.51435E-05   -0.73064E-07   108   0.339E-03    0.101E-03
DAV:   9    -0.102606083348E+03   -0.98145E-05   -0.72793E-07   108   0.355E-03    0.501E-04
DAV:  10    -0.102606086997E+03   -0.36494E-05   -0.40023E-07   108   0.204E-03    0.580E-04
DAV:  11    -0.102606088104E+03   -0.11073E-05   -0.39655E-08   108   0.817E-04    0.472E-04
DAV:  12    -0.102606091526E+03   -0.34214E-05   -0.77559E-08   108   0.773E-04    0.146E-04
DAV:  13    -0.102606094065E+03   -0.25399E-05   -0.87519E-08   108   0.654E-04    0.228E-04
DAV:  14    -0.102606095262E+03   -0.11963E-05   -0.15657E-08   108   0.417E-04    0.758E-05
DAV:  15    -0.102606095969E+03   -0.70773E-06   -0.10618E-08   108   0.281E-04
  29 F= -.10260610E+03 E0= -.10260610E+03  d E =-.473697E-11
       N       E                     dE             d eps       ncg     rms          rms(c)
DAV:   1    -0.102603153962E+03    0.29413E-02   -0.17097E-01    96   0.125E+00    0.147E-01
DAV:   2    -0.102604119680E+03   -0.96572E-03   -0.98421E-03   132   0.344E-01    0.953E-02
DAV:   3    -0.102604104258E+03    0.15422E-04   -0.23219E-04   132   0.639E-02    0.479E-02
DAV:   4    -0.102604112317E+03   -0.80585E-05   -0.10813E-04   132   0.427E-02    0.101E-02
DAV:   5    -0.102604108344E+03    0.39729E-05   -0.25703E-05   132   0.192E-02    0.766E-03
DAV:   6    -0.102604108180E+03    0.16423E-06   -0.49497E-06   132   0.690E-03
  30 F= -.10260411E+03 E0= -.10260411E+03  d E =-.718957E-10
       N       E                     dE             d eps       ncg     rms          rms(c)
DAV:   1    -0.102602059794E+03    0.20485E-02   -0.35321E-01    96   0.183E+00    0.251E-01
DAV:   2    -0.102604584388E+03   -0.25246E-02   -0.25419E-02   132   0.578E-01    0.175E-01
DAV:   3    -0.102604495129E+03    0.89258E-04   -0.59728E-04   132   0.106E-01    0.909E-02
DAV:   4    -0.102604500173E+03   -0.50441E-05   -0.36299E-04   132   0.728E-02    0.169E-02
DAV:   5    -0.102604487308E+03    0.12865E-04   -0.69508E-05   132   0.305E-02    0.111E-02
DAV:   6    -0.102604490424E+03   -0.31156E-05   -0.13482E-05   132   0.105E-02    0.633E-03
DAV:   7    -0.102604510330E+03   -0.19906E-04   -0.15762E-06   120   0.426E-03    0.284E-03
DAV:   8    -0.102604538952E+03   -0.28621E-04   -0.41617E-06   120   0.576E-03    0.153E-03
DAV:   9    -0.102604554897E+03   -0.15946E-04   -0.18831E-06   120   0.354E-03    0.182E-03
DAV:  10    -0.102604568402E+03   -0.13505E-04   -0.71050E-07   108   0.229E-03    0.727E-04
DAV:  11    -0.102604576457E+03   -0.80543E-05   -0.65779E-07   108   0.177E-03    0.310E-04
DAV:  12    -0.102604581780E+03   -0.53230E-05   -0.22662E-07   108   0.105E-03    0.222E-04
DAV:  13    -0.102604584107E+03   -0.23279E-05   -0.78002E-08   108   0.592E-04    0.224E-04
DAV:  14    -0.102604585784E+03   -0.16765E-05   -0.37517E-08   108   0.445E-04    0.773E-05
DAV:  15    -0.102604586462E+03   -0.67766E-06   -0.91815E-09   108   0.275E-04
  31 F= -.10260459E+03 E0= -.10260459E+03  d E =-.497467E-10
       N       E                     dE             d eps       ncg     rms          rms(c)
DAV:   1    -0.102604500364E+03    0.85420E-04   -0.17195E-01    96   0.128E+00    0.155E-01
DAV:   2    -0.102605836722E+03   -0.13364E-02   -0.13767E-02   132   0.407E-01    0.111E-01
DAV:   3    -0.102605792095E+03    0.44628E-04   -0.28685E-04   156   0.699E-02    0.662E-02
DAV:   4    -0.102605778194E+03    0.13901E-04   -0.16978E-04   132   0.546E-02    0.105E-02
DAV:   5    -0.102605773649E+03    0.45451E-05   -0.58035E-05   132   0.278E-02    0.899E-03
DAV:   6    -0.102605771806E+03    0.18432E-05   -0.65573E-06   132   0.837E-03    0.644E-03
DAV:   7    -0.102605778551E+03   -0.67458E-05   -0.19435E-06   132   0.553E-03    0.271E-03
DAV:   8    -0.102605791437E+03   -0.12886E-04   -0.16278E-06   120   0.510E-03    0.111E-03
DAV:   9    -0.102605804615E+03   -0.13178E-04   -0.12204E-06   120   0.341E-03    0.159E-03
DAV:  10    -0.102605814994E+03   -0.10378E-04   -0.37189E-07   108   0.194E-03    0.671E-04
DAV:  11    -0.102605821823E+03   -0.68293E-05   -0.33856E-07   108   0.137E-03    0.289E-04
DAV:  12    -0.102605826920E+03   -0.50966E-05   -0.15195E-07   108   0.872E-04    0.181E-04
DAV:  13    -0.102605829813E+03   -0.28935E-05   -0.79955E-08   108   0.586E-04    0.209E-04
DAV:  14    -0.102605831231E+03   -0.14184E-05   -0.16366E-08   108   0.336E-04    0.123E-04
DAV:  15    -0.102605832268E+03   -0.10366E-05   -0.12436E-08    96   0.303E-04    0.458E-05
DAV:  16    -0.102605832630E+03   -0.36164E-06    0.14948E-09   108   0.165E-04
  32 F= -.10260583E+03 E0= -.10260583E+03  d E =-.521862E-11
       N       E                     dE             d eps       ncg     rms          rms(c)
DAV:   1    -0.102604011362E+03    0.18209E-02   -0.33992E-01    96   0.174E+00    0.199E-01
DAV:   2    -0.102605796201E+03   -0.17848E-02   -0.18016E-02   132   0.461E-01    0.125E-01
DAV:   3    -0.102605781800E+03    0.14401E-04   -0.44204E-04   132   0.865E-02    0.623E-02
DAV:   4    -0.102605795295E+03   -0.13495E-04   -0.16924E-04   132   0.546E-02    0.134E-02
DAV:   5    -0.102605788849E+03    0.64463E-05   -0.43152E-05   132   0.248E-02    0.923E-03
DAV:   6    -0.102605789553E+03   -0.70391E-06   -0.76646E-06   132   0.877E-03
  33 F= -.10260579E+03 E0= -.10260579E+03  d E =-.397157E-10
       N       E                     dE             d eps       ncg     rms          rms(c)
DAV:   1    -0.102603915623E+03    0.18732E-02   -0.17306E-01    96   0.129E+00    0.154E-01
DAV:   2    -0.102605051796E+03   -0.11362E-02   -0.11257E-02   120   0.381E-01    0.112E-01
DAV:   3    -0.102605039848E+03    0.11948E-04   -0.24301E-04   144   0.652E-02    0.620E-02
DAV:   4    -0.102605040298E+03   -0.45024E-06   -0.13555E-04   132   0.444E-02    0.104E-02
DAV:   5    -0.102605036500E+03    0.37981E-05   -0.27975E-05   144   0.194E-02    0.761E-03
DAV:   6    -0.102605037572E+03   -0.10718E-05   -0.64255E-06   132   0.797E-03    0.480E-03
DAV:   7    -0.102605046298E+03   -0.87258E-05   -0.13794E-06   120   0.444E-03    0.184E-03
DAV:   8    -0.102605058369E+03   -0.12071E-04   -0.11794E-06   120   0.380E-03    0.769E-04
DAV:   9    -0.102605069478E+03   -0.11108E-04   -0.11648E-06   120   0.289E-03    0.103E-03
DAV:  10    -0.102605078049E+03   -0.85711E-05   -0.50628E-07   108   0.184E-03    0.420E-04
DAV:  11    -0.102605082094E+03   -0.40455E-05   -0.26369E-07   108   0.107E-03    0.192E-04
DAV:  12    -0.102605084831E+03   -0.27362E-05   -0.10122E-07   108   0.700E-04    0.136E-04
DAV:  13    -0.102605086303E+03   -0.14720E-05   -0.48199E-08   108   0.486E-04    0.114E-04
DAV:  14    -0.102605087245E+03   -0.94208E-06   -0.24533E-08   108   0.358E-04
  34 F= -.10260509E+03 E0= -.10260509E+03  d E =-.691778E-10
       N       E                     dE             d eps       ncg     rms          rms(c)
DAV:   1    -0.102602844534E+03    0.22418E-02   -0.34431E-01    96   0.183E+00    0.224E-01
DAV:   2    -0.102604943240E+03   -0.20987E-02   -0.21465E-02   120   0.517E-01    0.151E-01
DAV:   3    -0.102604885234E+03    0.58006E-04   -0.50504E-04   144   0.918E-02    0.769E-02
DAV:   4    -0.102604870452E+03    0.14782E-04   -0.22862E-04   132   0.566E-02    0.144E-02
DAV:   5    -0.102604860197E+03    0.10255E-04   -0.38149E-05   132   0.238E-02    0.974E-03
DAV:   6    -0.102604860999E+03   -0.80204E-06   -0.11305E-05   132   0.112E-02    0.557E-03
DAV:   7    -0.102604875695E+03   -0.14696E-04   -0.28869E-06   132   0.674E-03    0.218E-03
DAV:   8    -0.102604896787E+03   -0.21092E-04   -0.19793E-06   132   0.555E-03    0.151E-03
DAV:   9    -0.102604921381E+03   -0.24593E-04   -0.19613E-06   132   0.380E-03    0.122E-03
DAV:  10    -0.102604938445E+03   -0.17065E-04   -0.65051E-07   108   0.204E-03    0.462E-04
DAV:  11    -0.102604948738E+03   -0.10292E-04   -0.37247E-07   108   0.125E-03    0.347E-04
DAV:  12    -0.102604957507E+03   -0.87699E-05   -0.24712E-07   108   0.998E-04    0.191E-04
DAV:  13    -0.102604960884E+03   -0.33765E-05   -0.54065E-08   108   0.531E-04    0.998E-05
DAV:  14    -0.102604963115E+03   -0.22309E-05   -0.28722E-08   108   0.371E-04    0.534E-05
DAV:  15    -0.102604963992E+03   -0.87711E-06   -0.28622E-09   108   0.213E-04
  35 F= -.10260496E+03 E0= -.10260496E+03  d E =-.526186E-10
       N       E                     dE             d eps       ncg     rms          rms(c)
DAV:   1    -0.102602887638E+03    0.20755E-02   -0.17718E-01    96   0.128E+00    0.169E-01
DAV:   2    -0.102604176456E+03   -0.12888E-02   -0.13159E-02   132   0.406E-01    0.123E-01
DAV:   3    -0.102604114969E+03    0.61487E-04   -0.27351E-04   144   0.718E-02    0.653E-02
DAV:   4    -0.102604115448E+03   -0.47920E-06   -0.20571E-04   132   0.552E-02    0.117E-02
DAV:   5    -0.102604110016E+03    0.54326E-05   -0.47104E-05   132   0.250E-02    0.886E-03
DAV:   6    -0.102604111313E+03   -0.12968E-05   -0.90875E-06   132   0.847E-03    0.582E-03
DAV:   7    -0.102604121140E+03   -0.98278E-05   -0.84479E-07   108   0.339E-03    0.287E-03
DAV:   8    -0.102604138987E+03   -0.17847E-04   -0.24575E-06   132   0.444E-03    0.115E-03
DAV:   9    -0.102604148296E+03   -0.93089E-05   -0.92455E-07   120   0.266E-03    0.149E-03
DAV:  10    -0.102604160112E+03   -0.11816E-04   -0.62345E-07   108   0.190E-03    0.651E-04
DAV:  11    -0.102604165294E+03   -0.51827E-05   -0.32834E-07   108   0.127E-03    0.298E-04
DAV:  12    -0.102604169295E+03   -0.40012E-05   -0.11902E-07   108   0.822E-04    0.141E-04
DAV:  13    -0.102604171356E+03   -0.20607E-05   -0.62001E-08   108   0.536E-04    0.214E-04
DAV:  14    -0.102604172562E+03   -0.12063E-05   -0.18972E-08   108   0.345E-04    0.112E-04
DAV:  15    -0.102604173028E+03   -0.46601E-06   -0.58666E-10   108   0.204E-04
  36 F= -.10260417E+03 E0= -.10260417E+03  d E =-.723165E-10
       N       E                     dE             d eps       ncg     rms          rms(c)
DAV:   1    -0.102602027652E+03    0.21449E-02   -0.35350E-01    96   0.183E+00    0.252E-01
DAV:   2    -0.102604531580E+03   -0.25039E-02   -0.25543E-02   132   0.579E-01    0.175E-01
DAV:   3    -0.102604419750E+03    0.11183E-03   -0.60007E-04   132   0.106E-01    0.911E-02
DAV:   4    -0.102604418615E+03    0.11343E-05   -0.36023E-04   132   0.728E-02    0.169E-02
DAV:   5    -0.102604411054E+03    0.75609E-05   -0.70797E-05   132   0.308E-02    0.112E-02
DAV:   6    -0.102604419688E+03   -0.86335E-05   -0.13930E-05   132   0.106E-02    0.639E-03
DAV:   7    -0.102604446680E+03   -0.26992E-04   -0.19258E-06   108   0.451E-03    0.289E-03
DAV:   8    -0.102604486871E+03   -0.40190E-04   -0.59088E-06   120   0.654E-03    0.184E-03
DAV:   9    -0.102604505821E+03   -0.18950E-04   -0.20819E-06   120   0.373E-03    0.199E-03
DAV:  10    -0.102604522596E+03   -0.16775E-04   -0.94523E-07    96   0.256E-03    0.752E-04
DAV:  11    -0.102604531589E+03   -0.89929E-05   -0.71754E-07   108   0.188E-03    0.360E-04
DAV:  12    -0.102604537997E+03   -0.64086E-05   -0.25346E-07   108   0.115E-03    0.232E-04
DAV:  13    -0.102604540697E+03   -0.26998E-05   -0.89432E-08   108   0.635E-04    0.232E-04
DAV:  14    -0.102604542648E+03   -0.19508E-05   -0.39554E-08   108   0.456E-04    0.879E-05
DAV:  15    -0.102604543454E+03   -0.80651E-06   -0.10223E-08   108   0.288E-04
  37 F= -.10260454E+03 E0= -.10260454E+03  d E =-.496194E-10
       N       E                     dE             d eps       ncg     rms          rms(c)
DAV:   1    -0.102604113459E+03    0.42919E-03   -0.18020E-01    96   0.134E+00    0.162E-01
DAV:   2    -0.102605485779E+03   -0.13723E-02   -0.15128E-02   132   0.417E-01    0.111E-01
DAV:   3    -0.102605421040E+03    0.64739E-04   -0.28677E-04   156   0.672E-02    0.642E-02
DAV:   4    -0.102605395124E+03    0.25916E-04   -0.15923E-04   132   0.510E-02    0.101E-02
DAV:   5    -0.102605389056E+03    0.60679E-05   -0.42874E-05   132   0.245E-02    0.807E-03
DAV:   6    -0.102605389463E+03   -0.40673E-06   -0.50441E-06   132   0.714E-03
  38 F= -.10260539E+03 E0= -.10260539E+03  d E =-.616604E-10
       N       E                     dE             d eps       ncg     rms          rms(c)
DAV:   1    -0.102603490239E+03    0.18988E-02   -0.39546E-01    96   0.182E+00    0.207E-01
DAV:   2    -0.102605128007E+03   -0.16378E-02   -0.19549E-02   132   0.424E-01    0.123E-01
DAV:   3    -0.102605016922E+03    0.11109E-03   -0.32819E-04   132   0.674E-02    0.642E-02
DAV:   4    -0.102604986922E+03    0.30000E-04   -0.16113E-04   132   0.477E-02    0.121E-02
DAV:   5    -0.102604976487E+03    0.10435E-04   -0.29329E-05   132   0.204E-02    0.787E-03
DAV:   6    -0.102604976861E+03   -0.37429E-06   -0.69579E-06   132   0.790E-03
  39 F= -.10260498E+03 E0= -.10260498E+03  d E =-.653075E-10
       N       E                     dE             d eps       ncg     rms          rms(c)
DAV:   1    -0.102605491625E+03   -0.51514E-03   -0.20063E-01    96   0.125E+00    0.136E-01
DAV:   2    -0.102606309232E+03   -0.81761E-03   -0.94968E-03   120   0.288E-01    0.786E-02
DAV:   3    -0.102606284979E+03    0.24253E-04   -0.17176E-04   144   0.482E-02    0.415E-02
DAV:   4    -0.102606289183E+03   -0.42037E-05   -0.67176E-05   132   0.316E-02    0.791E-03
DAV:   5    -0.102606285856E+03    0.33264E-05   -0.13358E-05   132   0.137E-02    0.512E-03
DAV:   6    -0.102606284297E+03    0.15592E-05   -0.30621E-06   132   0.551E-03    0.279E-03
DAV:   7    -0.102606286387E+03   -0.20897E-05   -0.48606E-07   108   0.262E-03    0.108E-03
DAV:   8    -0.102606289689E+03   -0.33017E-05   -0.33239E-07   108   0.196E-03    0.602E-04
DAV:   9    -0.102606294416E+03   -0.47270E-05   -0.30859E-07   108   0.152E-03    0.406E-04
DAV:  10    -0.102606298687E+03   -0.42715E-05   -0.30076E-07   108   0.123E-03    0.229E-04
DAV:  11    -0.102606299831E+03   -0.11438E-05   -0.37883E-08   108   0.593E-04    0.170E-04
DAV:  12    -0.102606301401E+03   -0.15702E-05   -0.41247E-08   108   0.494E-04    0.851E-05
DAV:  13    -0.102606302630E+03   -0.12286E-05   -0.47538E-08   108   0.425E-04    0.673E-05
DAV:  14    -0.102606303290E+03   -0.66009E-06   -0.11082E-08   108   0.254E-04
  40 F= -.10260630E+03 E0= -.10260630E+03  d E =-.212849E-10
       N       E                     dE             d eps       ncg     rms          rms(c)
DAV:   1    -0.102605107576E+03    0.11951E-02   -0.40698E-01    96   0.178E+00    0.199E-01
DAV:   2    -0.102606423470E+03   -0.13159E-02   -0.15718E-02   132   0.370E-01    0.852E-02
DAV:   3    -0.102606364422E+03    0.59048E-04   -0.33707E-04   132   0.640E-02    0.439E-02
DAV:   4    -0.102606347677E+03    0.16745E-04   -0.81701E-05   144   0.368E-02    0.129E-02
DAV:   5    -0.102606343793E+03    0.38842E-05   -0.19642E-05   132   0.175E-02    0.705E-03
DAV:   6    -0.102606344648E+03   -0.85465E-06   -0.44496E-06   132   0.752E-03
  41 F= -.10260634E+03 E0= -.10260634E+03  d E =-.966030E-11
       N       E                     dE             d eps       ncg     rms          rms(c)
DAV:   1    -0.102605380969E+03    0.96282E-03   -0.20469E-01    96   0.127E+00    0.133E-01
DAV:   2    -0.102606014346E+03   -0.63338E-03   -0.74418E-03   120   0.255E-01    0.605E-02
DAV:   3    -0.102605996059E+03    0.18287E-04   -0.17751E-04   144   0.470E-02    0.304E-02
DAV:   4    -0.102605997903E+03   -0.18444E-05   -0.43893E-05   132   0.266E-02    0.836E-03
DAV:   5    -0.102605998828E+03   -0.92545E-06   -0.86718E-06   132   0.115E-02
  42 F= -.10260600E+03 E0= -.10260600E+03  d E =-.264235E-10
       N       E                     dE             d eps       ncg     rms          rms(c)
DAV:   1    -0.102604914556E+03    0.10833E-02   -0.40778E-01    96   0.182E+00    0.210E-01
DAV:   2    -0.102606244850E+03   -0.13303E-02   -0.15950E-02   132   0.387E-01    0.948E-02
DAV:   3    -0.102606185160E+03    0.59691E-04   -0.35081E-04   144   0.664E-02    0.488E-02
DAV:   4    -0.102606168609E+03    0.16550E-04   -0.94689E-05   144   0.391E-02    0.127E-02
DAV:   5    -0.102606161400E+03    0.72097E-05   -0.19256E-05   144   0.171E-02    0.708E-03
DAV:   6    -0.102606161253E+03    0.14677E-06   -0.39967E-06   132   0.707E-03
  43 F= -.10260616E+03 E0= -.10260616E+03  d E =-.709760E-11
       N       E                     dE             d eps       ncg     rms          rms(c)
DAV:   1    -0.102604777516E+03    0.13839E-02   -0.19943E-01    96   0.131E+00    0.164E-01
DAV:   2    -0.102605842183E+03   -0.10647E-02   -0.12460E-02   132   0.321E-01    0.729E-02
DAV:   3    -0.102605801684E+03    0.40499E-04   -0.27403E-04   144   0.575E-02    0.402E-02
DAV:   4    -0.102605795955E+03    0.57293E-05   -0.71233E-05   132   0.323E-02    0.110E-02
DAV:   5    -0.102605794255E+03    0.17003E-05   -0.15930E-05   132   0.156E-02    0.644E-03
DAV:   6    -0.102605794575E+03   -0.32035E-06   -0.26751E-06   132   0.607E-03
  44 F= -.10260579E+03 E0= -.10260579E+03  d E =-.620210E-10
       N       E                     dE             d eps       ncg     rms          rms(c)
DAV:   1    -0.102604647133E+03    0.11471E-02   -0.40650E-01    96   0.174E+00    0.224E-01
DAV:   2    -0.102606061527E+03   -0.14144E-02   -0.16974E-02   132   0.388E-01    0.103E-01
DAV:   3    -0.102605982229E+03    0.79298E-04   -0.35672E-04   132   0.675E-02    0.541E-02
DAV:   4    -0.102605956346E+03    0.25883E-04   -0.11688E-04   132   0.413E-02    0.134E-02
DAV:   5    -0.102605948126E+03    0.82201E-05   -0.23368E-05   132   0.187E-02    0.814E-03
DAV:   6    -0.102605948482E+03   -0.35595E-06   -0.50464E-06   132   0.780E-03
  45 F= -.10260595E+03 E0= -.10260595E+03  d E =-.532764E-10
       N       E                     dE             d eps       ncg     rms          rms(c)
DAV:   1    -0.102605023404E+03    0.92472E-03   -0.20498E-01    96   0.123E+00    0.159E-01
DAV:   2    -0.102605608295E+03   -0.58489E-03   -0.71981E-03   132   0.250E-01    0.642E-02
DAV:   3    -0.102605577759E+03    0.30537E-04   -0.17418E-04   132   0.458E-02    0.334E-02
DAV:   4    -0.102605577290E+03    0.46911E-06   -0.44632E-05   132   0.260E-02    0.100E-02
DAV:   5    -0.102605579482E+03   -0.21926E-05   -0.10123E-05   132   0.126E-02    0.576E-03
DAV:   6    -0.102605582458E+03   -0.29756E-05   -0.23709E-06   132   0.540E-03    0.315E-03
DAV:   7    -0.102605586576E+03   -0.41178E-05   -0.26462E-07   108   0.181E-03    0.120E-03
DAV:   8    -0.102605591109E+03   -0.45330E-05   -0.30476E-07   108   0.178E-03    0.573E-04
DAV:   9    -0.102605595905E+03   -0.47968E-05   -0.27482E-07   108   0.168E-03    0.379E-04
DAV:  10    -0.102605600021E+03   -0.41153E-05   -0.32310E-07   108   0.148E-03    0.396E-04
DAV:  11    -0.102605601264E+03   -0.12437E-05   -0.46343E-08   108   0.793E-04    0.175E-04
DAV:  12    -0.102605602601E+03   -0.13370E-05   -0.35205E-08   108   0.502E-04    0.136E-04
DAV:  13    -0.102605603341E+03   -0.73956E-06   -0.10851E-08   108   0.285E-04
  46 F= -.10260560E+03 E0= -.10260560E+03  d E =-.609562E-10
       N       E                     dE             d eps       ncg     rms          rms(c)
DAV:   1    -0.102603840130E+03    0.17625E-02   -0.39837E-01    96   0.171E+00    0.218E-01
DAV:   2    -0.102605325190E+03   -0.14851E-02   -0.18145E-02   132   0.397E-01    0.118E-01
DAV:   3    -0.102605198479E+03    0.12671E-03   -0.35467E-04   132   0.696E-02    0.598E-02
DAV:   4    -0.102605157723E+03    0.40756E-04   -0.14974E-04   132   0.452E-02    0.130E-02
DAV:   5    -0.102605147346E+03    0.10377E-04   -0.24101E-05   132   0.188E-02    0.796E-03
DAV:   6    -0.102605149648E+03   -0.23025E-05   -0.66200E-06   132   0.814E-03    0.404E-03
DAV:   7    -0.102605161928E+03   -0.12279E-04   -0.16330E-06   132   0.422E-03    0.165E-03
DAV:   8    -0.102605178707E+03   -0.16779E-04   -0.89159E-07   120   0.264E-03    0.106E-03
DAV:   9    -0.102605196674E+03   -0.17967E-04   -0.94739E-07   120   0.217E-03    0.660E-04
DAV:  10    -0.102605212639E+03   -0.15965E-04   -0.92590E-07   120   0.189E-03    0.391E-04
DAV:  11    -0.102605218473E+03   -0.58343E-05   -0.10311E-07   108   0.887E-04    0.206E-04
DAV:  12    -0.102605224450E+03   -0.59774E-05   -0.18212E-07   108   0.871E-04    0.130E-04
DAV:  13    -0.102605226326E+03   -0.18761E-05   -0.21595E-08   108   0.377E-04    0.846E-05
DAV:  14    -0.102605227889E+03   -0.15622E-05   -0.11902E-08   108   0.295E-04    0.402E-05
DAV:  15    -0.102605228422E+03   -0.53318E-06    0.42725E-10   108   0.164E-04
  47 F= -.10260523E+03 E0= -.10260523E+03  d E =-.567916E-10
       N       E                     dE             d eps       ncg     rms          rms(c)
DAV:   1    -0.102605956036E+03   -0.72815E-03   -0.20433E-01    96   0.121E+00    0.156E-01
DAV:   2    -0.102606650354E+03   -0.69432E-03   -0.84007E-03   132   0.271E-01    0.732E-02
DAV:   3    -0.102606603072E+03    0.47282E-04   -0.18296E-04   132   0.478E-02    0.384E-02
DAV:   4    -0.102606586643E+03    0.16428E-04   -0.58739E-05   144   0.295E-02    0.975E-03
DAV:   5    -0.102606582822E+03    0.38214E-05   -0.11103E-05   132   0.129E-02    0.568E-03
DAV:   6    -0.102606584240E+03   -0.14181E-05   -0.23879E-06   132   0.537E-03    0.302E-03
DAV:   7    -0.102606589446E+03   -0.52063E-05   -0.52101E-07   108   0.264E-03    0.965E-04
DAV:   8    -0.102606594980E+03   -0.55343E-05   -0.37408E-07   108   0.197E-03    0.690E-04
DAV:   9    -0.102606604619E+03   -0.96383E-05   -0.76850E-07   120   0.218E-03    0.293E-04
DAV:  10    -0.102606608860E+03   -0.42417E-05   -0.26046E-07   108   0.132E-03    0.277E-04
DAV:  11    -0.102606610587E+03   -0.17267E-05   -0.48137E-08   108   0.652E-04    0.164E-04
DAV:  12    -0.102606613129E+03   -0.25421E-05   -0.96559E-08   108   0.653E-04    0.923E-05
DAV:  13    -0.102606613935E+03   -0.80569E-06   -0.17422E-08   108   0.318E-04
  48 F= -.10260661E+03 E0= -.10260661E+03  d E =-.530146E-10
       N       E                     dE             d eps       ncg     rms          rms(c)
DAV:   1    -0.102604792215E+03    0.18209E-02   -0.41032E-01    96   0.171E+00    0.219E-01
DAV:   2    -0.102606067842E+03   -0.12756E-02   -0.15591E-02   132   0.353E-01    0.886E-02
DAV:   3    -0.102606001656E+03    0.66186E-04   -0.39666E-04   144   0.668E-02    0.453E-02
DAV:   4    -0.102605988633E+03    0.13023E-04   -0.82136E-05   132   0.360E-02    0.140E-02
DAV:   5    -0.102605985458E+03    0.31752E-05   -0.17481E-05   132   0.168E-02    0.749E-03
DAV:   6    -0.102605986626E+03   -0.11682E-05   -0.38647E-06   132   0.689E-03    0.420E-03
DAV:   7    -0.102605990471E+03   -0.38446E-05   -0.38593E-07   108   0.279E-03    0.112E-03
DAV:   8    -0.102605994392E+03   -0.39217E-05   -0.26800E-07   108   0.218E-03    0.768E-04
DAV:   9    -0.102606003226E+03   -0.88337E-05   -0.62590E-07   108   0.294E-03    0.373E-04
DAV:  10    -0.102606006461E+03   -0.32349E-05   -0.33408E-07   108   0.171E-03    0.451E-04
DAV:  11    -0.102606007665E+03   -0.12040E-05   -0.30953E-08   108   0.702E-04    0.342E-04
DAV:  12    -0.102606009831E+03   -0.21657E-05   -0.45682E-08   108   0.608E-04    0.107E-04
DAV:  13    -0.102606011558E+03   -0.17275E-05   -0.54767E-08   108   0.531E-04    0.200E-04
DAV:  14    -0.102606012404E+03   -0.84615E-06   -0.94530E-09   108   0.323E-04
  49 F= -.10260601E+03 E0= -.10260601E+03  d E =-.610107E-10
       N       E                     dE             d eps       ncg     rms          rms(c)
DAV:   1    -0.102605099937E+03    0.91162E-03   -0.19938E-01    96   0.130E+00    0.155E-01
DAV:   2    -0.102606133789E+03   -0.10339E-02   -0.12051E-02   132   0.299E-01    0.677E-02
DAV:   3    -0.102606108147E+03    0.25642E-04   -0.25617E-04   144   0.510E-02    0.370E-02
DAV:   4    -0.102606098096E+03    0.10052E-04   -0.45768E-05   132   0.246E-02    0.102E-02
DAV:   5    -0.102606094593E+03    0.35025E-05   -0.73460E-06   132   0.110E-02    0.526E-03
DAV:   6    -0.102606094985E+03   -0.39154E-06   -0.20109E-06   108   0.588E-03
  50 F= -.10260609E+03 E0= -.10260609E+03  d E =-.883587E-11
       N       E                     dE             d eps       ncg     rms          rms(c)
DAV:   1    -0.102604697092E+03    0.13975E-02   -0.40540E-01    96   0.179E+00    0.190E-01
DAV:   2    -0.102606159928E+03   -0.14628E-02   -0.17175E-02   132   0.391E-01    0.954E-02
DAV:   3    -0.102606099203E+03    0.60724E-04   -0.32538E-04   132   0.639E-02    0.502E-02
DAV:   4    -0.102606076520E+03    0.22683E-04   -0.10266E-04   132   0.404E-02    0.119E-02
DAV:   5    -0.102606069503E+03    0.70174E-05   -0.23930E-05   144   0.189E-02    0.717E-03
DAV:   6    -0.102606070631E+03   -0.11280E-05   -0.49563E-06   132   0.767E-03    0.406E-03
DAV:   7    -0.102606076483E+03   -0.58517E-05   -0.76238E-07   108   0.330E-03    0.154E-03
DAV:   8    -0.102606083611E+03   -0.71280E-05   -0.58421E-07   108   0.268E-03    0.833E-04
DAV:   9    -0.102606094354E+03   -0.10743E-04   -0.81738E-07   120   0.256E-03    0.470E-04
DAV:  10    -0.102606101878E+03   -0.75245E-05   -0.57046E-07   108   0.195E-03    0.348E-04
DAV:  11    -0.102606103983E+03   -0.21044E-05   -0.98753E-08   108   0.961E-04    0.256E-04
DAV:  12    -0.102606106920E+03   -0.29377E-05   -0.10221E-07   108   0.758E-04    0.141E-04
DAV:  13    -0.102606108650E+03   -0.17298E-05   -0.70722E-08   108   0.529E-04    0.122E-04
DAV:  14    -0.102606109804E+03   -0.11539E-05   -0.25978E-08   108   0.346E-04    0.408E-05
DAV:  15    -0.102606110132E+03   -0.32821E-06    0.47997E-10   108   0.177E-04
  51 F= -.10260611E+03 E0= -.10260611E+03  d E =-.239980E-10
       N       E                     dE             d eps       ncg     rms          rms(c)
DAV:   1    -0.102604556143E+03    0.15537E-02   -0.19859E-01    96   0.126E+00    0.138E-01
DAV:   2    -0.102605366190E+03   -0.81005E-03   -0.98555E-03   120   0.295E-01    0.852E-02
DAV:   3    -0.102605303118E+03    0.63072E-04   -0.17003E-04   156   0.483E-02    0.443E-02
DAV:   4    -0.102605276629E+03    0.26488E-04   -0.66585E-05   132   0.315E-02    0.805E-03
DAV:   5    -0.102605269530E+03    0.70990E-05   -0.14042E-05   132   0.140E-02    0.508E-03
DAV:   6    -0.102605270966E+03   -0.14352E-05   -0.34667E-06   132   0.563E-03    0.300E-03
DAV:   7    -0.102605278869E+03   -0.79032E-05   -0.73357E-07   108   0.296E-03    0.119E-03
DAV:   8    -0.102605289468E+03   -0.10599E-04   -0.79599E-07   120   0.249E-03    0.926E-04
DAV:   9    -0.102605301121E+03   -0.11653E-04   -0.50410E-07   108   0.178E-03    0.501E-04
DAV:  10    -0.102605310508E+03   -0.93871E-05   -0.56800E-07   120   0.139E-03    0.306E-04
DAV:  11    -0.102605313653E+03   -0.31454E-05   -0.44780E-08   108   0.616E-04    0.191E-04
DAV:  12    -0.102605318280E+03   -0.46265E-05   -0.11864E-07   108   0.714E-04    0.106E-04
DAV:  13    -0.102605320024E+03   -0.17437E-05   -0.28243E-08   108   0.384E-04    0.713E-05
DAV:  14    -0.102605321433E+03   -0.14092E-05   -0.12393E-08   108   0.278E-04    0.368E-05
DAV:  15    -0.102605321841E+03   -0.40771E-06    0.19510E-09   108   0.139E-04
  52 F= -.10260532E+03 E0= -.10260532E+03  d E =-.439829E-10
       N       E                     dE             d eps       ncg     rms          rms(c)
DAV:   1    -0.102604225635E+03    0.10958E-02   -0.39907E-01    96   0.180E+00    0.219E-01
DAV:   2    -0.102605728178E+03   -0.15025E-02   -0.18306E-02   132   0.420E-01    0.114E-01
DAV:   3    -0.102605612760E+03    0.11542E-03   -0.33867E-04   132   0.681E-02    0.599E-02
DAV:   4    -0.102605568157E+03    0.44602E-04   -0.13715E-04   132   0.451E-02    0.126E-02
DAV:   5    -0.102605560848E+03    0.73097E-05   -0.25215E-05   132   0.192E-02    0.792E-03
DAV:   6    -0.102605567498E+03   -0.66498E-05   -0.63953E-06   132   0.798E-03    0.429E-03
DAV:   7    -0.102605585047E+03   -0.17550E-04   -0.19324E-06   132   0.434E-03    0.168E-03
DAV:   8    -0.102605603881E+03   -0.18834E-04   -0.13576E-06   120   0.299E-03    0.106E-03
DAV:   9    -0.102605623275E+03   -0.19394E-04   -0.15973E-06   132   0.272E-03    0.720E-04
DAV:  10    -0.102605639349E+03   -0.16074E-04   -0.15328E-06   120   0.236E-03    0.414E-04
DAV:  11    -0.102605642628E+03   -0.32793E-05   -0.78688E-08   108   0.824E-04    0.268E-04
DAV:  12    -0.102605648293E+03   -0.56644E-05   -0.27411E-07    96   0.107E-03    0.129E-04
DAV:  13    -0.102605649772E+03   -0.14791E-05   -0.48406E-08   108   0.481E-04    0.113E-04
DAV:  14    -0.102605650864E+03   -0.10919E-05   -0.77613E-09    96   0.315E-04    0.462E-05
DAV:  15    -0.102605651462E+03   -0.59857E-06   -0.59691E-09   108   0.234E-04
  53 F= -.10260565E+03 E0= -.10260565E+03  d E =-.930100E-10
       N       E                     dE             d eps       ncg     rms          rms(c)
DAV:   1    -0.102605275143E+03    0.37572E-03   -0.19861E-01    96   0.128E+00    0.150E-01
DAV:   2    -0.102606046543E+03   -0.77140E-03   -0.93331E-03   132   0.299E-01    0.838E-02
DAV:   3    -0.102605981976E+03    0.64567E-04   -0.16172E-04   132   0.477E-02    0.438E-02
DAV:   4    -0.102605958182E+03    0.23794E-04   -0.79029E-05   132   0.336E-02    0.883E-03
DAV:   5    -0.102605952411E+03    0.57716E-05   -0.14343E-05   132   0.144E-02    0.568E-03
DAV:   6    -0.102605953112E+03   -0.70149E-06   -0.33814E-06   132   0.566E-03
  54 F= -.10260595E+03 E0= -.10260595E+03  d E =-.235678E-10
       N       E                     dE             d eps       ncg     rms          rms(c)
DAV:   1    -0.102604873339E+03    0.10791E-02   -0.40764E-01    96   0.182E+00    0.211E-01
DAV:   2    -0.102606214199E+03   -0.13409E-02   -0.16009E-02   132   0.388E-01    0.955E-02
DAV:   3    -0.102606161272E+03    0.52926E-04   -0.35243E-04   144   0.667E-02    0.491E-02
DAV:   4    -0.102606158705E+03    0.25676E-05   -0.95817E-05   144   0.395E-02    0.127E-02
DAV:   5    -0.102606154123E+03    0.45818E-05   -0.20005E-05   132   0.175E-02    0.716E-03
DAV:   6    -0.102606153115E+03    0.10084E-05   -0.42090E-06   132   0.726E-03    0.378E-03
DAV:   7    -0.102606156131E+03   -0.30166E-05   -0.64616E-07   108   0.330E-03    0.127E-03
DAV:   8    -0.102606160172E+03   -0.40411E-05   -0.33916E-07   108   0.232E-03    0.731E-04
DAV:   9    -0.102606167692E+03   -0.75201E-05   -0.52472E-07   108   0.243E-03    0.376E-04
DAV:  10    -0.102606172454E+03   -0.47615E-05   -0.38003E-07   108   0.170E-03    0.321E-04
DAV:  11    -0.102606174174E+03   -0.17199E-05   -0.54301E-08   108   0.802E-04    0.249E-04
DAV:  12    -0.102606176495E+03   -0.23211E-05   -0.63283E-08   108   0.642E-04    0.102E-04
DAV:  13    -0.102606177927E+03   -0.14316E-05   -0.45486E-08   108   0.458E-04    0.116E-04
DAV:  14    -0.102606178838E+03   -0.91099E-06   -0.13868E-08   108   0.319E-04
  55 F= -.10260618E+03 E0= -.10260618E+03  d E =-.734160E-11
       N       E                     dE             d eps       ncg     rms          rms(c)
DAV:   1    -0.102605005169E+03    0.11728E-02   -0.22121E-01   108   0.131E+00    0.149E-01
DAV:   2    -0.102606003898E+03   -0.99873E-03   -0.11413E-02   120   0.305E-01    0.701E-02
DAV:   3    -0.102605983962E+03    0.19936E-04   -0.24173E-04   156   0.512E-02    0.367E-02
DAV:   4    -0.102605976935E+03    0.70264E-05   -0.53078E-05   144   0.263E-02    0.916E-03
DAV:   5    -0.102605973538E+03    0.33973E-05   -0.77346E-06   132   0.105E-02    0.511E-03
DAV:   6    -0.102605975058E+03   -0.15201E-05   -0.26684E-06   120   0.578E-03    0.193E-03
DAV:   7    -0.102605979797E+03   -0.47391E-05   -0.82021E-07   108   0.320E-03    0.102E-03
DAV:   8    -0.102605986726E+03   -0.69291E-05   -0.41335E-07   108   0.188E-03    0.536E-04
DAV:   9    -0.102605992672E+03   -0.59452E-05   -0.33893E-07   108   0.151E-03    0.374E-04
DAV:  10    -0.102605998885E+03   -0.62135E-05   -0.38261E-07   108   0.137E-03    0.198E-04
DAV:  11    -0.102606001398E+03   -0.25130E-05   -0.10277E-07   108   0.765E-04    0.169E-04
DAV:  12    -0.102606002903E+03   -0.15046E-05   -0.26344E-08   108   0.436E-04    0.108E-04
DAV:  13    -0.102606004016E+03   -0.11127E-05   -0.24301E-08   108   0.351E-04    0.456E-05
DAV:  14    -0.102606004587E+03   -0.57162E-06   -0.31835E-09   108   0.206E-04
  56 F= -.10260600E+03 E0= -.10260600E+03  d E =-.564684E-10
       N       E                     dE             d eps       ncg     rms          rms(c)
DAV:   1    -0.102604530201E+03    0.14738E-02   -0.40520E-01   120   0.163E+00    0.175E-01
DAV:   2    -0.102605960528E+03   -0.14303E-02   -0.17335E-02   132   0.365E-01    0.958E-02
DAV:   3    -0.102605918810E+03    0.41718E-04   -0.30373E-04   132   0.623E-02    0.500E-02
DAV:   4    -0.102605889757E+03    0.29053E-04   -0.75099E-05   132   0.424E-02    0.941E-03
DAV:   5    -0.102605884452E+03    0.53049E-05   -0.31357E-05   132   0.210E-02    0.833E-03
DAV:   6    -0.102605885563E+03   -0.11114E-05   -0.44371E-06   132   0.647E-03    0.604E-03
DAV:   7    -0.102605892431E+03   -0.68675E-05   -0.79944E-07   108   0.383E-03    0.257E-03
DAV:   8    -0.102605905450E+03   -0.13019E-04   -0.18166E-06   120   0.434E-03    0.161E-03
DAV:   9    -0.102605924101E+03   -0.18651E-04   -0.13730E-06   120   0.368E-03    0.956E-04
DAV:  10    -0.102605932806E+03   -0.87055E-05   -0.48543E-07   108   0.219E-03    0.877E-04
DAV:  11    -0.102605937404E+03   -0.45979E-05   -0.11591E-07   108   0.110E-03    0.424E-04
DAV:  12    -0.102605944568E+03   -0.71635E-05   -0.30741E-07   108   0.122E-03    0.347E-04
DAV:  13    -0.102605945743E+03   -0.11755E-05   -0.31991E-08   120   0.517E-04    0.260E-04
DAV:  14    -0.102605948254E+03   -0.25107E-05   -0.63693E-08   108   0.531E-04    0.106E-04
DAV:  15    -0.102605948876E+03   -0.62239E-06   -0.61709E-09   108   0.253E-04
  57 F= -.10260595E+03 E0= -.10260595E+03  d E =-.514690E-11
       N       E                     dE             d eps       ncg     rms          rms(c)
DAV:   1    -0.102604642949E+03    0.13053E-02   -0.20472E-01   120   0.112E+00    0.115E-01
DAV:   2    -0.102605257696E+03   -0.61475E-03   -0.74321E-03   132   0.230E-01    0.567E-02
DAV:   3    -0.102605249478E+03    0.82183E-05   -0.14773E-04   132   0.451E-02    0.292E-02
DAV:   4    -0.102605242414E+03    0.70636E-05   -0.31101E-05   132   0.306E-02    0.614E-03
DAV:   5    -0.102605242028E+03    0.38659E-06   -0.16412E-05   132   0.150E-02    0.618E-03
DAV:   6    -0.102605242388E+03   -0.36065E-06   -0.12635E-06   120   0.362E-03
  58 F= -.10260524E+03 E0= -.10260524E+03  d E =-.602743E-11
       N       E                     dE             d eps       ncg     rms          rms(c)
DAV:   1    -0.102603977783E+03    0.12642E-02   -0.40361E-01   108   0.160E+00    0.195E-01
DAV:   2    -0.102605496614E+03   -0.15188E-02   -0.18559E-02   120   0.381E-01    0.111E-01
DAV:   3    -0.102605428255E+03    0.68358E-04   -0.32042E-04   132   0.602E-02    0.577E-02
DAV:   4    -0.102605374256E+03    0.53999E-04   -0.97073E-05   132   0.395E-02    0.101E-02
DAV:   5    -0.102605371356E+03    0.29007E-05   -0.21456E-05   132   0.176E-02    0.755E-03
DAV:   6    -0.102605381437E+03   -0.10081E-04   -0.79680E-06   132   0.799E-03    0.397E-03
DAV:   7    -0.102605399725E+03   -0.18288E-04   -0.20779E-06   132   0.459E-03    0.206E-03
DAV:   8    -0.102605428178E+03   -0.28453E-04   -0.28356E-06   120   0.397E-03    0.110E-03
DAV:   9    -0.102605447093E+03   -0.18915E-04   -0.17020E-06   120   0.292E-03    0.897E-04
DAV:  10    -0.102605464621E+03   -0.17528E-04   -0.16483E-06   120   0.252E-03    0.355E-04
DAV:  11    -0.102605470462E+03   -0.58405E-05   -0.24717E-07   108   0.112E-03    0.329E-04
DAV:  12    -0.102605475537E+03   -0.50753E-05   -0.30300E-07   108   0.105E-03    0.113E-04
DAV:  13    -0.102605476669E+03   -0.11319E-05   -0.34150E-08   108   0.421E-04    0.848E-05
DAV:  14    -0.102605477623E+03   -0.95428E-06   -0.10086E-08   108   0.293E-04
  59 F= -.10260548E+03 E0= -.10260548E+03  d E =-.396076E-10
       N       E                     dE             d eps       ncg     rms          rms(c)
DAV:   1    -0.102604077385E+03    0.13993E-02   -0.20055E-01    96   0.119E+00    0.133E-01
DAV:   2    -0.102604852734E+03   -0.77535E-03   -0.96924E-03   132   0.277E-01    0.757E-02
DAV:   3    -0.102604815210E+03    0.37523E-04   -0.14815E-04   132   0.388E-02    0.387E-02
DAV:   4    -0.102604781227E+03    0.33984E-04   -0.34098E-05   132   0.225E-02    0.717E-03
DAV:   5    -0.102604773496E+03    0.77310E-05   -0.73741E-06   132   0.110E-02    0.425E-03
DAV:   6    -0.102604776196E+03   -0.27005E-05   -0.36965E-06   132   0.649E-03    0.228E-03
DAV:   7    -0.102604785296E+03   -0.90996E-05   -0.12365E-06   120   0.414E-03    0.142E-03
DAV:   8    -0.102604800292E+03   -0.14996E-04   -0.82659E-07   108   0.271E-03    0.757E-04
DAV:   9    -0.102604814099E+03   -0.13807E-04   -0.99963E-07   120   0.228E-03    0.576E-04
DAV:  10    -0.102604826552E+03   -0.12452E-04   -0.53501E-07   108   0.165E-03    0.276E-04
DAV:  11    -0.102604831347E+03   -0.47952E-05   -0.15051E-07   108   0.809E-04    0.266E-04
DAV:  12    -0.102604836019E+03   -0.46721E-05   -0.98102E-08   108   0.653E-04    0.911E-05
DAV:  13    -0.102604837608E+03   -0.15886E-05   -0.20694E-08   108   0.349E-04    0.581E-05
DAV:  14    -0.102604838916E+03   -0.13080E-05   -0.12300E-08   108   0.274E-04    0.441E-05
DAV:  15    -0.102604839366E+03   -0.45076E-06    0.18066E-09   108   0.155E-04
  60 F= -.10260484E+03 E0= -.10260484E+03  d E =-.565057E-11
       N       E                     dE             d eps       ncg     rms          rms(c)
DAV:   1    -0.102603639071E+03    0.11998E-02   -0.40159E-01   108   0.164E+00    0.199E-01
DAV:   2    -0.102605103451E+03   -0.14644E-02   -0.18690E-02   132   0.378E-01    0.119E-01
DAV:   3    -0.102604994672E+03    0.10878E-03   -0.27944E-04   132   0.552E-02    0.590E-02
DAV:   4    -0.102604917861E+03    0.76811E-04   -0.89695E-05   132   0.342E-02    0.108E-02
DAV:   5    -0.102604918531E+03   -0.67073E-06   -0.14351E-05   132   0.145E-02    0.643E-03
DAV:   6    -0.102604946919E+03   -0.28387E-04   -0.13386E-05   120   0.104E-02    0.325E-03
DAV:   7    -0.102604977245E+03   -0.30327E-04   -0.38340E-06   132   0.591E-03    0.236E-03
DAV:   8    -0.102605019818E+03   -0.42572E-04   -0.40007E-06   120   0.423E-03    0.105E-03
DAV:   9    -0.102605048998E+03   -0.29180E-04   -0.29982E-06   120   0.351E-03    0.951E-04
DAV:  10    -0.102605073308E+03   -0.24310E-04   -0.27035E-06   120   0.305E-03    0.328E-04
DAV:  11    -0.102605078858E+03   -0.55497E-05   -0.21561E-07   108   0.113E-03    0.335E-04
DAV:  12    -0.102605083723E+03   -0.48652E-05   -0.19764E-07   108   0.922E-04    0.136E-04
DAV:  13    -0.102605085059E+03   -0.13357E-05   -0.38726E-08   108   0.429E-04    0.864E-05
DAV:  14    -0.102605086211E+03   -0.11526E-05   -0.12148E-08   108   0.331E-04    0.556E-05
DAV:  15    -0.102605086607E+03   -0.39594E-06    0.47242E-10   108   0.181E-04
  61 F= -.10260509E+03 E0= -.10260509E+03  d E =-.287172E-10
       N       E                     dE             d eps       ncg     rms          rms(c)
DAV:   1    -0.102608006619E+03   -0.29204E-02   -0.23726E-01    96   0.169E+00    0.150E-01
DAV:   2    -0.102608391021E+03   -0.38440E-03   -0.65796E-03   132   0.256E-01    0.870E-02
DAV:   3    -0.102608310140E+03    0.80881E-04   -0.20118E-04   132   0.502E-02    0.374E-02
DAV:   4    -0.102608291480E+03    0.18661E-04   -0.78019E-05   132   0.302E-02    0.923E-03
DAV:   5    -0.102608287358E+03    0.41214E-05   -0.86174E-06   132   0.112E-02    0.626E-03
DAV:   6    -0.102608288636E+03   -0.12778E-05   -0.36040E-06   132   0.629E-03    0.218E-03
DAV:   7    -0.102608293482E+03   -0.48460E-05   -0.72550E-07   108   0.334E-03    0.132E-03
DAV:   8    -0.102608302098E+03   -0.86163E-05   -0.51830E-07   108   0.214E-03    0.762E-04
DAV:   9    -0.102608311527E+03   -0.94290E-05   -0.54376E-07   108   0.188E-03    0.408E-04
DAV:  10    -0.102608319740E+03   -0.82132E-05   -0.46286E-07   108   0.146E-03    0.339E-04
DAV:  11    -0.102608324013E+03   -0.42731E-05   -0.11534E-07   108   0.905E-04    0.220E-04
DAV:  12    -0.102608326267E+03   -0.22532E-05   -0.42595E-08   108   0.508E-04    0.145E-04
DAV:  13    -0.102608327221E+03   -0.95403E-06   -0.87539E-09   108   0.285E-04
  62 F= -.10260833E+03 E0= -.10260833E+03  d E =-.500600E-10
       N       E                     dE             d eps       ncg     rms          rms(c)
DAV:   1    -0.102608636027E+03   -0.30976E-03   -0.54911E-01    96   0.266E+00    0.230E-01
DAV:   2    -0.102608275420E+03    0.36061E-03   -0.33169E-03   120   0.203E-01    0.121E-01
DAV:   3    -0.102608062973E+03    0.21245E-03   -0.52561E-04   132   0.706E-02    0.363E-02
DAV:   4    -0.102608063782E+03   -0.80846E-06   -0.10998E-04   132   0.331E-02    0.121E-02
DAV:   5    -0.102608065654E+03   -0.18727E-05   -0.70513E-06   132   0.104E-02    0.594E-03
DAV:   6    -0.102608069180E+03   -0.35260E-05   -0.31949E-06   132   0.588E-03    0.156E-03
DAV:   7    -0.102608071444E+03   -0.22639E-05   -0.33666E-07   108   0.229E-03    0.867E-04
DAV:   8    -0.102608075096E+03   -0.36519E-05   -0.16971E-07   108   0.140E-03    0.328E-04
DAV:   9    -0.102608077100E+03   -0.20040E-05   -0.78326E-08   108   0.910E-04    0.303E-04
DAV:  10    -0.102608080349E+03   -0.32489E-05   -0.14928E-07   108   0.101E-03    0.131E-04
DAV:  11    -0.102608081466E+03   -0.11167E-05   -0.52303E-08   108   0.614E-04    0.117E-04
DAV:  12    -0.102608082080E+03   -0.61377E-06   -0.48710E-09   108   0.299E-04
  63 F= -.10260808E+03 E0= -.10260808E+03  d E =-.691795E-10
       N       E                     dE             d eps       ncg     rms          rms(c)
DAV:   1    -0.102607540458E+03    0.54101E-03   -0.29028E-01    96   0.188E+00    0.217E-01
DAV:   2    -0.102607295121E+03    0.24534E-03   -0.23760E-03   132   0.178E-01    0.103E-01
DAV:   3    -0.102607143434E+03    0.15169E-03   -0.38381E-04   132   0.613E-02    0.379E-02
DAV:   4    -0.102607133317E+03    0.10117E-04   -0.11469E-04   132   0.324E-02    0.127E-02
DAV:   5    -0.102607131447E+03    0.18702E-05   -0.54701E-06   132   0.997E-03    0.501E-03
DAV:   6    -0.102607132594E+03   -0.11471E-05   -0.28995E-06   132   0.602E-03    0.213E-03
DAV:   7    -0.102607134193E+03   -0.15985E-05   -0.54754E-07   108   0.279E-03    0.950E-04
DAV:   8    -0.102607136817E+03   -0.26239E-05   -0.17697E-07   108   0.151E-03    0.446E-04
DAV:   9    -0.102607138915E+03   -0.20986E-05   -0.13918E-07   108   0.128E-03    0.526E-04
DAV:  10    -0.102607142429E+03   -0.35138E-05   -0.21243E-07   108   0.124E-03    0.268E-04
DAV:  11    -0.102607143379E+03   -0.94983E-06   -0.38022E-08   108   0.644E-04
  64 F= -.10260714E+03 E0= -.10260714E+03  d E =-.655876E-10
       N       E                     dE             d eps       ncg     rms          rms(c)
DAV:   1    -0.102607567070E+03   -0.42464E-03   -0.56807E-01    96   0.269E+00    0.283E-01
DAV:   2    -0.102607126189E+03    0.44088E-03   -0.44160E-03   132   0.240E-01    0.137E-01
DAV:   3    -0.102606834024E+03    0.29216E-03   -0.66488E-04   132   0.766E-02    0.500E-02
DAV:   4    -0.102606813635E+03    0.20389E-04   -0.17224E-04   132   0.393E-02    0.168E-02
DAV:   5    -0.102606815657E+03   -0.20218E-05   -0.11008E-05   132   0.138E-02    0.658E-03
DAV:   6    -0.102606822045E+03   -0.63886E-05   -0.52232E-06   132   0.763E-03    0.283E-03
DAV:   7    -0.102606827899E+03   -0.58536E-05   -0.80411E-07   108   0.332E-03    0.120E-03
DAV:   8    -0.102606836166E+03   -0.82666E-05   -0.54162E-07   108   0.253E-03    0.766E-04
DAV:   9    -0.102606841311E+03   -0.51451E-05   -0.38577E-07   108   0.188E-03    0.727E-04
DAV:  10    -0.102606848450E+03   -0.71397E-05   -0.50878E-07   108   0.176E-03    0.346E-04
DAV:  11    -0.102606850371E+03   -0.19211E-05   -0.11793E-07   108   0.908E-04    0.268E-04
DAV:  12    -0.102606851465E+03   -0.10938E-05   -0.18396E-08   108   0.471E-04    0.114E-04
DAV:  13    -0.102606853047E+03   -0.15815E-05   -0.59065E-08   108   0.540E-04    0.123E-04
DAV:  14    -0.102606853596E+03   -0.54907E-06   -0.11577E-08   108   0.277E-04
  65 F= -.10260685E+03 E0= -.10260685E+03  d E =-.531474E-10
       N       E                     dE             d eps       ncg     rms          rms(c)
DAV:   1    -0.102608655315E+03   -0.18023E-02   -0.28977E-01    96   0.189E+00    0.207E-01
DAV:   2    -0.102608393639E+03    0.26168E-03   -0.24654E-03   132   0.182E-01    0.102E-01
DAV:   3    -0.102608238278E+03    0.15536E-03   -0.43429E-04   132   0.666E-02    0.348E-02
DAV:   4    -0.102608235625E+03    0.26526E-05   -0.11860E-04   132   0.344E-02    0.137E-02
DAV:   5    -0.102608234619E+03    0.10068E-05   -0.52536E-06   132   0.899E-03    0.607E-03
DAV:   6    -0.102608235403E+03   -0.78467E-06   -0.28325E-06   132   0.623E-03
  66 F= -.10260824E+03 E0= -.10260824E+03  d E =-.573819E-10
       N       E                     dE             d eps       ncg     rms          rms(c)
DAV:   1    -0.102608745367E+03   -0.51075E-03   -0.55856E-01    96   0.261E+00    0.224E-01
DAV:   2    -0.102608371878E+03    0.37349E-03   -0.36739E-03   132   0.212E-01    0.122E-01
DAV:   3    -0.102608140907E+03    0.23097E-03   -0.69629E-04   132   0.849E-02    0.322E-02
DAV:   4    -0.102608149222E+03   -0.83148E-05   -0.14179E-04   132   0.400E-02    0.157E-02
DAV:   5    -0.102608148566E+03    0.65520E-06   -0.47504E-06   132   0.818E-03
  67 F= -.10260815E+03 E0= -.10260815E+03  d E =-.632413E-10
       N       E                     dE             d eps       ncg     rms          rms(c)
DAV:   1    -0.102608919282E+03   -0.77006E-03   -0.27491E-01    96   0.196E+00    0.150E-01
DAV:   2    -0.102608854480E+03    0.64803E-04   -0.19155E-03   132   0.153E-01    0.856E-02
DAV:   3    -0.102608767779E+03    0.86701E-04   -0.18782E-04   132   0.451E-02    0.202E-02
DAV:   4    -0.102608769360E+03   -0.15809E-05   -0.38499E-05   132   0.198E-02    0.627E-03
DAV:   5    -0.102608769507E+03   -0.14733E-06   -0.13458E-06   108   0.480E-03
  68 F= -.10260877E+03 E0= -.10260877E+03  d E =-.539054E-10
       N       E                     dE             d eps       ncg     rms          rms(c)
DAV:   1    -0.102609185813E+03   -0.41645E-03   -0.54267E-01    96   0.266E+00    0.201E-01
DAV:   2    -0.102608892952E+03    0.29286E-03   -0.28179E-03   132   0.191E-01    0.114E-01
DAV:   3    -0.102608715652E+03    0.17730E-03   -0.50291E-04   132   0.745E-02    0.227E-02
DAV:   4    -0.102608725327E+03   -0.96755E-05   -0.96331E-05   120   0.324E-02    0.985E-03
DAV:   5    -0.102608725507E+03   -0.17963E-06   -0.33238E-06   132   0.680E-03
[...]
DAV:   4    -0.102608807749E+03   -0.59088E-05   -0.49497E-05   120   0.231E-02    0.741E-03
DAV:   5    -0.102608808431E+03   -0.68215E-06   -0.15252E-06   120   0.426E-03
 131 F= -.10260881E+03 E0= -.10260881E+03  d E =-.443656E-10
       N       E                     dE             d eps       ncg     rms          rms(c)
DAV:   1    -0.102608301867E+03    0.50588E-03   -0.26240E-01    96   0.167E+00    0.110E-01
DAV:   2    -0.102608250010E+03    0.51857E-04   -0.10642E-03   132   0.108E-01    0.638E-02
DAV:   3    -0.102608203366E+03    0.46644E-04   -0.17369E-04   132   0.400E-02    0.882E-03
DAV:   4    -0.102608206175E+03   -0.28086E-05   -0.25124E-05   132   0.163E-02    0.535E-03
DAV:   5    -0.102608206646E+03   -0.47109E-06   -0.84605E-07   108   0.333E-03
 132 F= -.10260821E+03 E0= -.10260821E+03  d E =-.763060E-10
       N       E                     dE             d eps       ncg     rms          rms(c)
DAV:   1    -0.102608735395E+03   -0.52922E-03   -0.52959E-01    96   0.235E+00    0.167E-01
DAV:   2    -0.102608636085E+03    0.99310E-04   -0.25101E-03   132   0.170E-01    0.949E-02
DAV:   3    -0.102608522729E+03    0.11336E-03   -0.38409E-04   132   0.601E-02    0.177E-02
DAV:   4    -0.102608525913E+03   -0.31844E-05   -0.63716E-05   120   0.257E-02    0.947E-03
DAV:   5    -0.102608525464E+03    0.44917E-06   -0.26124E-06   120   0.599E-03
 133 F= -.10260853E+03 E0= -.10260853E+03  d E =-.460006E-10
       N       E                     dE             d eps       ncg     rms          rms(c)
DAV:   1    -0.102608421394E+03    0.10452E-03   -0.27124E-01    96   0.203E+00    0.144E-01
DAV:   2    -0.102608375781E+03    0.45613E-04   -0.19042E-03   132   0.166E-01    0.779E-02
DAV:   3    -0.102608303290E+03    0.72491E-04   -0.16951E-04   132   0.432E-02    0.247E-02
DAV:   4    -0.102608302685E+03    0.60515E-06   -0.49016E-05   132   0.218E-02    0.657E-03
DAV:   5    -0.102608302016E+03    0.66893E-06   -0.31118E-06   144   0.676E-03
 134 F= -.10260830E+03 E0= -.10260830E+03  d E =-.619464E-10
       N       E                     dE             d eps       ncg     rms          rms(c)
DAV:   1    -0.102608456327E+03   -0.15364E-03   -0.55347E-01    96   0.275E+00    0.233E-01
DAV:   2    -0.102608137635E+03    0.31869E-03   -0.33574E-03   132   0.205E-01    0.121E-01
DAV:   3    -0.102607925479E+03    0.21216E-03   -0.44540E-04   132   0.635E-02    0.394E-02
DAV:   4    -0.102607918612E+03    0.68677E-05   -0.11077E-04   120   0.320E-02    0.119E-02
DAV:   5    -0.102607919243E+03   -0.63151E-06   -0.75936E-06   132   0.109E-02
 135 F= -.10260792E+03 E0= -.10260792E+03  d E =-.545184E-10
       N       E                     dE             d eps       ncg     rms          rms(c)
DAV:   1    -0.102607543771E+03    0.37484E-03   -0.29005E-01    96   0.191E+00    0.211E-01
DAV:   2    -0.102607292101E+03    0.25167E-03   -0.23553E-03   132   0.181E-01    0.102E-01
DAV:   3    -0.102607149421E+03    0.14268E-03   -0.39842E-04   132   0.647E-02    0.366E-02
DAV:   4    -0.102607148971E+03    0.44966E-06   -0.11895E-04   120   0.342E-02    0.145E-02
DAV:   5    -0.102607147694E+03    0.12777E-05   -0.50332E-06   132   0.938E-03    0.603E-03
DAV:   6    -0.102607147817E+03   -0.12339E-06   -0.27213E-06   132   0.614E-03
 136 F= -.10260715E+03 E0= -.10260715E+03  d E =-.523665E-10
       N       E                     dE             d eps       ncg     rms          rms(c)
DAV:   1    -0.102607831217E+03   -0.68352E-03   -0.57313E-01   108   0.273E+00    0.272E-01
DAV:   2    -0.102607319684E+03    0.51153E-03   -0.47038E-03   132   0.252E-01    0.137E-01
DAV:   3    -0.102607022330E+03    0.29735E-03   -0.80970E-04   132   0.931E-02    0.464E-02
DAV:   4    -0.102607022498E+03   -0.16827E-06   -0.20813E-04   132   0.479E-02    0.201E-02
DAV:   5    -0.102607022138E+03    0.35977E-06   -0.86554E-06   132   0.116E-02
 137 F= -.10260702E+03 E0= -.10260702E+03  d E =-.682012E-10
       N       E                     dE             d eps       ncg     rms          rms(c)
DAV:   1    -0.102608652857E+03   -0.16304E-02   -0.28835E-01   108   0.194E+00    0.205E-01
DAV:   2    -0.102608418437E+03    0.23442E-03   -0.25183E-03   132   0.187E-01    0.102E-01
DAV:   3    -0.102608272455E+03    0.14598E-03   -0.39651E-04   132   0.677E-02    0.355E-02
DAV:   4    -0.102608273235E+03   -0.78010E-06   -0.12722E-04   132   0.361E-02    0.141E-02
DAV:   5    -0.102608272289E+03    0.94611E-06   -0.54238E-06   132   0.979E-03
 138 F= -.10260827E+03 E0= -.10260827E+03  d E =-.728635E-10
       N       E                     dE             d eps       ncg     rms          rms(c)
DAV:   1    -0.102608572986E+03   -0.29975E-03   -0.54716E-01    96   0.272E+00    0.229E-01
DAV:   2    -0.102608301000E+03    0.27199E-03   -0.36476E-03   132   0.212E-01    0.122E-01
DAV:   3    -0.102608093765E+03    0.20724E-03   -0.46171E-04   132   0.681E-02    0.382E-02
DAV:   4    -0.102608092130E+03    0.16346E-05   -0.11531E-04   144   0.333E-02    0.121E-02
DAV:   5    -0.102608091892E+03    0.23814E-06   -0.71373E-06   132   0.107E-02
 139 F= -.10260809E+03 E0= -.10260809E+03  d E =-.493236E-10
       N       E                     dE             d eps       ncg     rms          rms(c)
DAV:   1    -0.102608059938E+03    0.32192E-04   -0.27651E-01    96   0.201E+00    0.168E-01
DAV:   2    -0.102607951950E+03    0.10799E-03   -0.18683E-03   120   0.155E-01    0.880E-02
DAV:   3    -0.102607860077E+03    0.91873E-04   -0.26076E-04   132   0.480E-02    0.278E-02
DAV:   4    -0.102607856530E+03    0.35473E-05   -0.48605E-05   144   0.210E-02    0.109E-02
DAV:   5    -0.102607854902E+03    0.16276E-05   -0.26554E-06   132   0.769E-03    0.536E-03
DAV:   6    -0.102607854909E+03   -0.68749E-08   -0.25344E-06   132   0.629E-03
 140 F= -.10260785E+03 E0= -.10260785E+03  d E =-.633528E-10
       N       E                     dE             d eps       ncg     rms          rms(c)
DAV:   1    -0.102608418121E+03   -0.56322E-03   -0.55706E-01    96   0.273E+00    0.246E-01
DAV:   2    -0.102608057953E+03    0.36017E-03   -0.35689E-03   132   0.219E-01    0.125E-01
DAV:   3    -0.102607836430E+03    0.22152E-03   -0.50631E-04   132   0.684E-02    0.415E-02
DAV:   4    -0.102607827176E+03    0.92541E-05   -0.11690E-04   132   0.333E-02    0.133E-02
DAV:   5    -0.102607827369E+03   -0.19259E-06   -0.77476E-06   132   0.117E-02
 141 F= -.10260783E+03 E0= -.10260783E+03  d E =-.526318E-10
       N       E                     dE             d eps       ncg     rms          rms(c)
DAV:   1    -0.102607125507E+03    0.70167E-03   -0.27300E-01    96   0.191E+00    0.139E-01
DAV:   2    -0.102606995353E+03    0.13015E-03   -0.15043E-03   132   0.138E-01    0.788E-02
DAV:   3    -0.102606908356E+03    0.86998E-04   -0.27289E-04   132   0.539E-02    0.158E-02
DAV:   4    -0.102606913699E+03   -0.53434E-05   -0.49532E-05   132   0.242E-02    0.859E-03
DAV:   5    -0.102606914238E+03   -0.53899E-06   -0.10719E-06   108   0.425E-03
 142 F= -.10260691E+03 E0= -.10260691E+03  d E =-.526482E-10
       N       E                     dE             d eps       ncg     rms          rms(c)
DAV:   1    -0.102607459980E+03   -0.54628E-03   -0.58130E-01    96   0.277E+00    0.291E-01
DAV:   2    -0.102606903474E+03    0.55651E-03   -0.48428E-03   132   0.267E-01    0.142E-01
DAV:   3    -0.102606599672E+03    0.30380E-03   -0.86008E-04   132   0.998E-02    0.478E-02
DAV:   4    -0.102606601105E+03   -0.14327E-05   -0.23516E-04   132   0.511E-02    0.195E-02
DAV:   5    -0.102606599257E+03    0.18477E-05   -0.93631E-06   132   0.129E-02    0.819E-03
DAV:   6    -0.102606599559E+03   -0.30150E-06   -0.51529E-06   132   0.873E-03
 143 F= -.10260660E+03 E0= -.10260660E+03  d E =-.689122E-10
       N       E                     dE             d eps       ncg     rms          rms(c)
DAV:   1    -0.102609120386E+03   -0.25211E-02   -0.28220E-01    96   0.196E+00    0.169E-01
DAV:   2    -0.102608898204E+03    0.22218E-03   -0.19194E-03   132   0.165E-01    0.896E-02
DAV:   3    -0.102608783939E+03    0.11426E-03   -0.33154E-04   132   0.619E-02    0.256E-02
DAV:   4    -0.102608789178E+03   -0.52390E-05   -0.79586E-05   132   0.303E-02    0.119E-02
DAV:   5    -0.102608789383E+03   -0.20478E-06   -0.30407E-06   132   0.713E-03
 144 F= -.10260879E+03 E0= -.10260879E+03  d E =-.653001E-10
       N       E                     dE             d eps       ncg     rms          rms(c)
DAV:   1    -0.102609177610E+03   -0.38843E-03   -0.54225E-01    96   0.272E+00    0.200E-01
DAV:   2    -0.102608910351E+03    0.26726E-03   -0.29285E-03   132   0.197E-01    0.112E-01
DAV:   3    -0.102608737260E+03    0.17309E-03   -0.45420E-04   132   0.688E-02    0.233E-02
DAV:   4    -0.102608743688E+03   -0.64272E-05   -0.75948E-05   132   0.285E-02    0.897E-03
DAV:   5    -0.102608744070E+03   -0.38260E-06   -0.31188E-06   132   0.655E-03
 145 F= -.10260874E+03 E0= -.10260874E+03  d E =-.532609E-10
       N       E                     dE             d eps       ncg     rms          rms(c)
DAV:   1    -0.102607976109E+03    0.76758E-03   -0.27712E-01    96   0.194E+00    0.157E-01
DAV:   2    -0.102607839579E+03    0.13653E-03   -0.19775E-03   132   0.163E-01    0.859E-02
DAV:   3    -0.102607739864E+03    0.99715E-04   -0.28581E-04   132   0.583E-02    0.247E-02
DAV:   4    -0.102607745356E+03   -0.54916E-05   -0.81828E-05   132   0.299E-02    0.110E-02
DAV:   5    -0.102607745034E+03    0.32171E-06   -0.24294E-06   132   0.654E-03
 146 F= -.10260775E+03 E0= -.10260775E+03  d E =-.619670E-10
       N       E                     dE             d eps       ncg     rms          rms(c)
DAV:   1    -0.102608636519E+03   -0.89116E-03   -0.56146E-01    96   0.276E+00    0.240E-01
DAV:   2    -0.102608213211E+03    0.42331E-03   -0.39370E-03   132   0.232E-01    0.126E-01
DAV:   3    -0.102607968007E+03    0.24520E-03   -0.65633E-04   132   0.866E-02    0.375E-02
DAV:   4    -0.102607972274E+03   -0.42666E-05   -0.16064E-04   132   0.431E-02    0.168E-02
DAV:   5    -0.102607971525E+03    0.74883E-06   -0.59970E-06   132   0.990E-03
 147 F= -.10260797E+03 E0= -.10260797E+03  d E =-.563738E-10
       N       E                     dE             d eps       ncg     rms          rms(c)
DAV:   1    -0.102607037106E+03    0.93517E-03   -0.27227E-01    96   0.192E+00    0.141E-01
DAV:   2    -0.102606907421E+03    0.12969E-03   -0.14215E-03   120   0.132E-01    0.782E-02
DAV:   3    -0.102606817689E+03    0.89732E-04   -0.21160E-04   132   0.452E-02    0.192E-02
DAV:   4    -0.102606819930E+03   -0.22413E-05   -0.38383E-05   132   0.200E-02    0.660E-03
DAV:   5    -0.102606821116E+03   -0.11862E-05   -0.17617E-06   120   0.518E-03    0.426E-03
DAV:   6    -0.102606823528E+03   -0.24117E-05   -0.11648E-06   108   0.364E-03    0.935E-04
DAV:   7    -0.102606824937E+03   -0.14090E-05   -0.21067E-07   108   0.178E-03    0.588E-04
DAV:   8    -0.102606827138E+03   -0.22012E-05   -0.10118E-07    96   0.122E-03    0.304E-04
DAV:   9    -0.102606829084E+03   -0.19453E-05   -0.10215E-07   108   0.101E-03    0.205E-04
DAV:  10    -0.102606831354E+03   -0.22700E-05   -0.12558E-07   108   0.852E-04    0.123E-04
DAV:  11    -0.102606831926E+03   -0.57215E-06   -0.18489E-08   108   0.415E-04
 148 F= -.10260683E+03 E0= -.10260683E+03  d E =-.583785E-10
       N       E                     dE             d eps       ncg     rms          rms(c)
DAV:   1    -0.102607383852E+03   -0.55250E-03   -0.57687E-01    96   0.276E+00    0.296E-01
DAV:   2    -0.102606929918E+03    0.45393E-03   -0.45562E-03   132   0.250E-01    0.141E-01
DAV:   3    -0.102606638634E+03    0.29128E-03   -0.69281E-04   132   0.846E-02    0.515E-02
DAV:   4    -0.102606623108E+03    0.15526E-04   -0.20357E-04   132   0.445E-02    0.185E-02
DAV:   5    -0.102606620137E+03    0.29710E-05   -0.99036E-06   132   0.140E-02    0.797E-03
DAV:   6    -0.102606621613E+03   -0.14760E-05   -0.53165E-06   132   0.870E-03    0.297E-03
DAV:   7    -0.102606624207E+03   -0.25941E-05   -0.12588E-06   120   0.420E-03    0.132E-03
DAV:   8    -0.102606628035E+03   -0.38275E-05   -0.20760E-07   108   0.168E-03    0.573E-04
DAV:   9    -0.102606631877E+03   -0.38427E-05   -0.24406E-07   108   0.171E-03    0.546E-04
DAV:  10    -0.102606637882E+03   -0.60046E-05   -0.42229E-07   108   0.176E-03    0.386E-04
DAV:  11    -0.102606639611E+03   -0.17293E-05   -0.87443E-08   120   0.933E-04    0.265E-04
DAV:  12    -0.102606640347E+03   -0.73544E-06   -0.90241E-09    96   0.393E-04
 149 F= -.10260664E+03 E0= -.10260664E+03  d E =-.593760E-10
       N       E                     dE             d eps       ncg     rms          rms(c)
DAV:   1    -0.102609082061E+03   -0.24424E-02   -0.27800E-01    96   0.194E+00    0.171E-01
DAV:   2    -0.102608885421E+03    0.19664E-03   -0.18736E-03   132   0.163E-01    0.890E-02
DAV:   3    -0.102608772945E+03    0.11248E-03   -0.27354E-04   132   0.541E-02    0.275E-02
DAV:   4    -0.102608774583E+03   -0.16381E-05   -0.67534E-05   132   0.264E-02    0.107E-02
DAV:   5    -0.102608775350E+03   -0.76724E-06   -0.34251E-06   132   0.769E-03
 150 F= -.10260878E+03 E0= -.10260878E+03  d E =-.587925E-10
       N       E                     dE             d eps       ncg     rms          rms(c)
DAV:   1    -0.102609171294E+03   -0.39671E-03   -0.54218E-01    96   0.272E+00    0.200E-01
DAV:   2    -0.102608899939E+03    0.27136E-03   -0.29365E-03   132   0.197E-01    0.112E-01
DAV:   3    -0.102608725779E+03    0.17416E-03   -0.45139E-04   132   0.687E-02    0.234E-02
DAV:   4    -0.102608732891E+03   -0.71125E-05   -0.76195E-05   132   0.285E-02    0.899E-03
DAV:   5    -0.102608734087E+03   -0.11957E-05   -0.31675E-06   132   0.659E-03    0.632E-03
DAV:   6    -0.102608737428E+03   -0.33412E-05   -0.16296E-06   108   0.428E-03    0.115E-03
DAV:   7    -0.102608739561E+03   -0.21330E-05   -0.31622E-07   108   0.207E-03    0.906E-04
DAV:   8    -0.102608742723E+03   -0.31622E-05   -0.15297E-07   108   0.165E-03    0.397E-04
DAV:   9    -0.102608746143E+03   -0.34198E-05   -0.20747E-07   108   0.167E-03    0.425E-04
DAV:  10    -0.102608748264E+03   -0.21214E-05   -0.11153E-07   108   0.989E-04    0.219E-04
DAV:  11    -0.102608749387E+03   -0.11226E-05   -0.33990E-08   108   0.482E-04    0.163E-04
DAV:  12    -0.102608750096E+03   -0.70870E-06   -0.12991E-08   108   0.341E-04
 151 F= -.10260875E+03 E0= -.10260875E+03  d E =-.556113E-10
       N       E                     dE             d eps       ncg     rms          rms(c)
DAV:   1    -0.102606728788E+03    0.20206E-02   -0.28037E-01    96   0.202E+00    0.182E-01
DAV:   2    -0.102606505261E+03    0.22353E-03   -0.22758E-03   132   0.182E-01    0.899E-02
DAV:   3    -0.102606372245E+03    0.13302E-03   -0.33569E-04   132   0.620E-02    0.315E-02
DAV:   4    -0.102606375888E+03   -0.36432E-05   -0.10705E-04   132   0.334E-02    0.108E-02
DAV:   5    -0.102606377092E+03   -0.12042E-05   -0.58576E-06   132   0.896E-03    0.654E-03
DAV:   6    -0.102606378820E+03   -0.17277E-05   -0.16219E-06   120   0.459E-03    0.136E-03
DAV:   7    -0.102606379999E+03   -0.11793E-05   -0.37437E-07   108   0.232E-03    0.661E-04
DAV:   8    -0.102606381735E+03   -0.17365E-05   -0.95753E-08   108   0.116E-03    0.261E-04
DAV:   9    -0.102606383007E+03   -0.12717E-05   -0.48641E-08   108   0.770E-04    0.182E-04
DAV:  10    -0.102606384709E+03   -0.17017E-05   -0.68256E-08   108   0.689E-04    0.966E-05
DAV:  11    -0.102606385262E+03   -0.55350E-06   -0.15578E-08   108   0.397E-04
 152 F= -.10260639E+03 E0= -.10260639E+03  d E =-.653057E-10
       N       E                     dE             d eps       ncg     rms          rms(c)
DAV:   1    -0.102607460203E+03   -0.10755E-02   -0.58317E-01    96   0.274E+00    0.298E-01
DAV:   2    -0.102606918104E+03    0.54210E-03   -0.49792E-03   132   0.268E-01    0.146E-01
DAV:   3    -0.102606586280E+03    0.33182E-03   -0.86294E-04   132   0.989E-02    0.512E-02
DAV:   4    -0.102606583936E+03    0.23438E-05   -0.26329E-04   132   0.522E-02    0.210E-02
DAV:   5    -0.102606582497E+03    0.14388E-05   -0.10577E-05   132   0.133E-02    0.941E-03
DAV:   6    -0.102606583821E+03   -0.13243E-05   -0.56985E-06   132   0.954E-03    0.197E-03
DAV:   7    -0.102606586377E+03   -0.25559E-05   -0.18988E-06   132   0.487E-03    0.150E-03
DAV:   8    -0.102606589368E+03   -0.29908E-05   -0.12263E-07   108   0.110E-03    0.651E-04
DAV:   9    -0.102606593117E+03   -0.37489E-05   -0.19550E-07   108   0.132E-03    0.600E-04
DAV:  10    -0.102606596472E+03   -0.33551E-05   -0.18177E-07   108   0.147E-03    0.852E-04
DAV:  11    -0.102606599205E+03   -0.27330E-05   -0.13484E-07   108   0.953E-04    0.289E-04
DAV:  12    -0.102606599968E+03   -0.76259E-06   -0.12615E-08   120   0.453E-04
 153 F= -.10260660E+03 E0= -.10260660E+03  d E =-.524074E-10
       N       E                     dE             d eps       ncg     rms          rms(c)
DAV:   1    -0.102608908581E+03   -0.23094E-02   -0.28467E-01    96   0.195E+00    0.197E-01
DAV:   2    -0.102608670418E+03    0.23816E-03   -0.21101E-03   132   0.167E-01    0.960E-02
DAV:   3    -0.102608532102E+03    0.13832E-03   -0.31511E-04   132   0.539E-02    0.351E-02
DAV:   4    -0.102608526987E+03    0.51149E-05   -0.89689E-05   132   0.287E-02    0.119E-02
DAV:   5    -0.102608528775E+03   -0.17886E-05   -0.54957E-06   132   0.999E-03    0.512E-03
DAV:   6    -0.102608532316E+03   -0.35402E-05   -0.25663E-06   132   0.536E-03    0.191E-03
DAV:   7    -0.102608535030E+03   -0.27141E-05   -0.36486E-07   108   0.230E-03    0.910E-04
DAV:   8    -0.102608539738E+03   -0.47080E-05   -0.25313E-07   108   0.167E-03    0.508E-04
DAV:   9    -0.102608541445E+03   -0.17072E-05   -0.11013E-07   108   0.107E-03    0.489E-04
DAV:  10    -0.102608544988E+03   -0.35430E-05   -0.16090E-07   108   0.106E-03    0.279E-04
DAV:  11    -0.102608546645E+03   -0.16572E-05   -0.11441E-07   108   0.758E-04    0.212E-04
DAV:  12    -0.102608547216E+03   -0.57077E-06   -0.10649E-08   120   0.385E-04
 154 F= -.10260855E+03 E0= -.10260855E+03  d E =-.573404E-10
       N       E                     dE             d eps       ncg     rms          rms(c)
DAV:   1    -0.102609281865E+03   -0.73522E-03   -0.54973E-01    96   0.264E+00    0.204E-01
DAV:   2    -0.102609012894E+03    0.26897E-03   -0.27802E-03   132   0.183E-01    0.113E-01
DAV:   3    -0.102608822153E+03    0.19074E-03   -0.42482E-04   132   0.638E-02    0.292E-02
DAV:   4    -0.102608823375E+03   -0.12225E-05   -0.81049E-05   132   0.291E-02    0.900E-03
DAV:   5    -0.102608822698E+03    0.67687E-06   -0.38463E-06   132   0.731E-03
 155 F= -.10260882E+03 E0= -.10260882E+03  d E =-.692057E-10
       N       E                     dE             d eps       ncg     rms          rms(c)
DAV:   1    -0.102608525120E+03    0.29825E-03   -0.27317E-01    96   0.194E+00    0.146E-01
DAV:   2    -0.102608381191E+03    0.14393E-03   -0.15150E-03   132   0.139E-01    0.819E-02
DAV:   3    -0.102608294141E+03    0.87050E-04   -0.25465E-04   132   0.527E-02    0.176E-02
DAV:   4    -0.102608301084E+03   -0.69429E-05   -0.49142E-05   132   0.230E-02    0.813E-03
DAV:   5    -0.102608301878E+03   -0.79390E-06   -0.14495E-06   120   0.486E-03
 156 F= -.10260830E+03 E0= -.10260830E+03  d E =-.690571E-10
       N       E                     dE             d eps       ncg     rms          rms(c)
DAV:   1    -0.102608581685E+03   -0.28060E-03   -0.54701E-01    96   0.272E+00    0.228E-01
DAV:   2    -0.102608316520E+03    0.26516E-03   -0.36333E-03   132   0.212E-01    0.121E-01
DAV:   3    -0.102608104572E+03    0.21195E-03   -0.46012E-04   132   0.679E-02    0.378E-02
DAV:   4    -0.102608105317E+03   -0.74527E-06   -0.11351E-04   144   0.330E-02    0.121E-02
DAV:   5    -0.102608105570E+03   -0.25308E-06   -0.69444E-06   132   0.106E-02
 157 F= -.10260811E+03 E0= -.10260811E+03  d E =-.503793E-10
