       N       E                     dE             d eps       ncg     rms          rms(c)
DAV:   1     0.200919167011E+03    0.20092E+03   -0.10491E+04   116   0.546E+02
DAV:   2    -0.258153436464E+02   -0.22673E+03   -0.21268E+03   128   0.102E+02
DAV:   3    -0.102463180301E+03   -0.76648E+02   -0.76459E+02   112   0.562E+01
DAV:   4    -0.106834376003E+03   -0.43712E+01   -0.43540E+01   104   0.189E+01
DAV:   5    -0.106917754260E+03   -0.83378E-01   -0.83325E-01   144   0.297E+00    0.150E+01
DAV:   6    -0.103719224540E+03    0.31985E+01   -0.15955E+00    96   0.455E+00    0.869E+00
DAV:   7    -0.102035003289E+03    0.16842E+01   -0.40536E+00   104   0.668E+00    0.122E+00
DAV:   8    -0.101982466999E+03    0.52536E-01   -0.25328E-01   104   0.214E+00    0.614E-01
DAV:   9    -0.101947084862E+03    0.35382E-01   -0.75827E-02   128   0.781E-01    0.336E-01
DAV:  10    -0.101947434711E+03   -0.34985E-03   -0.26636E-03   112   0.208E-01    0.158E-01
DAV:  11    -0.101946930131E+03    0.50458E-03   -0.75270E-03   104   0.252E-01    0.805E-02
DAV:  12    -0.101951005911E+03   -0.40758E-02   -0.82529E-04    96   0.894E-02    0.574E-02
DAV:  13    -0.101956157203E+03   -0.51513E-02   -0.19955E-03   104   0.113E-01    0.341E-02
DAV:  14    -0.101959647859E+03   -0.34907E-02   -0.26791E-04   112   0.478E-02    0.164E-02
DAV:  15    -0.101964681839E+03   -0.50340E-02   -0.69133E-04   110   0.674E-02    0.166E-02
DAV:  16    -0.101965478144E+03   -0.79631E-03   -0.36861E-05   112   0.187E-02    0.781E-03
DAV:  17    -0.101966519150E+03   -0.10410E-02   -0.88432E-05   104   0.233E-02    0.302E-03
DAV:  18    -0.101966755252E+03   -0.23610E-03   -0.78675E-06   112   0.855E-03    0.217E-03
DAV:  19    -0.101966938489E+03   -0.18324E-03   -0.65418E-06    96   0.617E-03    0.181E-03
DAV:  20    -0.101966981717E+03   -0.43228E-04   -0.73655E-07    88   0.299E-03    0.600E-04
DAV:  21    -0.101967012809E+03   -0.31092E-04   -0.97486E-07    80   0.260E-03    0.610E-04
DAV:  22    -0.101967021273E+03   -0.84647E-05   -0.21990E-07    80   0.151E-03    0.281E-04
DAV:  23    -0.101967023914E+03   -0.26407E-05   -0.61465E-08    88   0.669E-04    0.159E-04
DAV:  24    -0.101967027326E+03   -0.34120E-05   -0.57971E-08    78   0.582E-04    0.103E-04
DAV:  25    -0.101967027707E+03   -0.38122E-06   -0.92627E-09    88   0.266E-04
   1 F= -.10196703E+03 E0= -.10196703E+03  d E =-.101967E+03
       N       E                     dE             d eps       ncg     rms          rms(c)
DAV:   1    -0.102083381974E+03   -0.11635E+00   -0.57466E+00    84   0.100E+01    0.107E+00
DAV:   2    -0.102106433784E+03   -0.23052E-01   -0.28346E-01   120   0.217E+00    0.561E-01
DAV:   3    -0.102102497738E+03    0.39360E-02   -0.10055E-02   120   0.425E-01    0.284E-01
DAV:   4    -0.102101551721E+03    0.94602E-03   -0.55675E-03   112   0.268E-01    0.617E-02
DAV:   5    -0.102101413584E+03    0.13814E-03   -0.48971E-04   112   0.990E-02    0.394E-02
DAV:   6    -0.102101451827E+03   -0.38244E-04   -0.12413E-04   120   0.454E-02    0.213E-02
DAV:   7    -0.102101636446E+03   -0.18462E-03   -0.61327E-05   104   0.330E-02    0.758E-03
DAV:   8    -0.102101747796E+03   -0.11135E-03   -0.16975E-05   112   0.173E-02    0.775E-03
DAV:   9    -0.102101844768E+03   -0.96972E-04   -0.40415E-06   112   0.632E-03    0.527E-03
DAV:  10    -0.102102030283E+03   -0.18551E-03   -0.13970E-05   104   0.867E-03    0.334E-03
DAV:  11    -0.102102070865E+03   -0.40582E-04   -0.11368E-06    88   0.405E-03    0.177E-03
DAV:  12    -0.102102164259E+03   -0.93394E-04   -0.69106E-06    96   0.632E-03    0.124E-03
DAV:  13    -0.102102172179E+03   -0.79207E-05   -0.30318E-07    96   0.262E-03    0.636E-04
DAV:  14    -0.102102197288E+03   -0.25109E-04   -0.59164E-07    80   0.213E-03    0.392E-04
DAV:  15    -0.102102205826E+03   -0.85378E-05   -0.20056E-07    88   0.110E-03    0.399E-04
DAV:  16    -0.102102212801E+03   -0.69756E-05   -0.10789E-07    88   0.840E-04    0.222E-04
DAV:  17    -0.102102213736E+03   -0.93454E-06   -0.13390E-08    96   0.363E-04
   2 F= -.10210221E+03 E0= -.10210221E+03  d E =-.135186E+00
       N       E                     dE             d eps       ncg     rms          rms(c)
DAV:   1    -0.102108613974E+03   -0.64012E-02   -0.18032E-01    84   0.180E+00    0.182E-01
DAV:   2    -0.102109345897E+03   -0.73192E-03   -0.92756E-03   120   0.393E-01    0.103E-01
DAV:   3    -0.102109203832E+03    0.14206E-03   -0.34444E-04   120   0.786E-02    0.515E-02
DAV:   4    -0.102109159675E+03    0.44157E-04   -0.18339E-04   112   0.488E-02    0.117E-02
DAV:   5    -0.102109154434E+03    0.52413E-05   -0.15534E-05   112   0.177E-02    0.722E-03
DAV:   6    -0.102109161083E+03   -0.66489E-05   -0.46118E-06   112   0.848E-03    0.366E-03
DAV:   7    -0.102109177141E+03   -0.16059E-04   -0.24385E-06    96   0.620E-03    0.143E-03
DAV:   8    -0.102109185663E+03   -0.85217E-05   -0.65520E-07    88   0.345E-03    0.149E-03
DAV:   9    -0.102109193920E+03   -0.82566E-05   -0.40508E-07    88   0.196E-03    0.871E-04
DAV:  10    -0.102109204801E+03   -0.10882E-04   -0.78790E-07    80   0.209E-03    0.476E-04
DAV:  11    -0.102109207323E+03   -0.25218E-05   -0.11273E-07    88   0.103E-03    0.225E-04
DAV:  12    -0.102109212019E+03   -0.46957E-05   -0.30705E-07    80   0.121E-03    0.142E-04
DAV:  13    -0.102109212892E+03   -0.87320E-06   -0.38319E-08    88   0.517E-04
   3 F= -.10210921E+03 E0= -.10210921E+03  d E =-.142185E+00
       N       E                     dE             d eps       ncg     rms          rms(c)
DAV:   1    -0.102141595776E+03   -0.32384E-01   -0.76243E-01    84   0.367E+00    0.395E-01
DAV:   2    -0.102144378710E+03   -0.27829E-02   -0.36246E-02   120   0.752E-01    0.182E-01
DAV:   3    -0.102144009567E+03    0.36914E-03   -0.18316E-03   120   0.174E-01    0.945E-02
DAV:   4    -0.102144013101E+03   -0.35332E-05   -0.62174E-04   112   0.921E-02    0.342E-02
DAV:   5    -0.102144003525E+03    0.95761E-05   -0.37114E-05   112   0.277E-02    0.165E-02
DAV:   6    -0.102144000866E+03    0.26582E-05   -0.14923E-05   120   0.172E-02    0.676E-03
DAV:   7    -0.102144010006E+03   -0.91398E-05   -0.93780E-06   104   0.124E-02    0.350E-03
DAV:   8    -0.102144014934E+03   -0.49278E-05   -0.16779E-06    96   0.546E-03    0.262E-03
DAV:   9    -0.102144019406E+03   -0.44722E-05   -0.25984E-07    80   0.177E-03    0.128E-03
DAV:  10    -0.102144031719E+03   -0.12313E-04   -0.93300E-07    80   0.288E-03    0.726E-04
DAV:  11    -0.102144034772E+03   -0.30528E-05   -0.17273E-07    88   0.122E-03    0.485E-04
DAV:  12    -0.102144041945E+03   -0.71726E-05   -0.42004E-07    80   0.162E-03    0.204E-04
DAV:  13    -0.102144044235E+03   -0.22904E-05   -0.14676E-07    88   0.931E-04    0.192E-04
DAV:  14    -0.102144045979E+03   -0.17439E-05   -0.46537E-08    88   0.616E-04    0.112E-04
DAV:  15    -0.102144047097E+03   -0.11182E-05   -0.48186E-08    88   0.474E-04    0.115E-04
DAV:  16    -0.102144047523E+03   -0.42545E-06   -0.10665E-08    88   0.245E-04
   4 F= -.10214405E+03 E0= -.10214405E+03  d E =-.348346E-01
       N       E                     dE             d eps       ncg     rms          rms(c)
DAV:   1    -0.102147877175E+03   -0.38301E-02   -0.18946E-01    84   0.183E+00    0.195E-01
DAV:   2    -0.102148563637E+03   -0.68646E-03   -0.90654E-03   120   0.376E-01    0.912E-02
DAV:   3    -0.102148473514E+03    0.90124E-04   -0.47191E-04   120   0.884E-02    0.465E-02
DAV:   4    -0.102148478608E+03   -0.50941E-05   -0.15887E-04   112   0.465E-02    0.177E-02
DAV:   5    -0.102148475084E+03    0.35233E-05   -0.90670E-06   112   0.137E-02    0.840E-03
DAV:   6    -0.102148473547E+03    0.15370E-05   -0.42591E-06   112   0.904E-03    0.312E-03
DAV:   7    -0.102148475514E+03   -0.19668E-05   -0.22890E-06    88   0.611E-03    0.168E-03
DAV:   8    -0.102148476957E+03   -0.14431E-05   -0.38846E-07    88   0.268E-03    0.122E-03
DAV:   9    -0.102148478699E+03   -0.17417E-05   -0.92225E-08    80   0.107E-03    0.526E-04
DAV:  10    -0.102148482022E+03   -0.33225E-05   -0.19985E-07    80   0.128E-03    0.336E-04
DAV:  11    -0.102148483345E+03   -0.13230E-05   -0.55777E-08    88   0.720E-04    0.168E-04
DAV:  12    -0.102148485476E+03   -0.21318E-05   -0.10508E-07    80   0.827E-04    0.821E-05
DAV:  13    -0.102148486124E+03   -0.64727E-06   -0.28110E-08    88   0.461E-04
   5 F= -.10214849E+03 E0= -.10214849E+03  d E =-.392732E-01
       N       E                     dE             d eps       ncg     rms          rms(c)
DAV:   1    -0.102157992938E+03   -0.95075E-02   -0.27487E-01    84   0.237E+00    0.197E-01
DAV:   2    -0.102158772915E+03   -0.77998E-03   -0.10555E-02   120   0.399E-01    0.104E-01
DAV:   3    -0.102158677884E+03    0.95031E-04   -0.39164E-04   120   0.786E-02    0.546E-02
DAV:   4    -0.102158669517E+03    0.83670E-05   -0.14584E-04   112   0.417E-02    0.137E-02
DAV:   5    -0.102158665219E+03    0.42982E-05   -0.11806E-05   112   0.137E-02    0.783E-03
DAV:   6    -0.102158665733E+03   -0.51454E-06   -0.33870E-06   104   0.663E-03
   6 F= -.10215867E+03 E0= -.10215867E+03  d E =-.101796E-01
       N       E                     dE             d eps       ncg     rms          rms(c)
DAV:   1    -0.102159797025E+03   -0.11318E-02   -0.72721E-02    84   0.122E+00    0.101E-01
DAV:   2    -0.102160007512E+03   -0.21049E-03   -0.28290E-03   120   0.207E-01    0.540E-02
DAV:   3    -0.102159983495E+03    0.24017E-04   -0.10459E-04   120   0.407E-02    0.283E-02
DAV:   4    -0.102159985320E+03   -0.18256E-05   -0.39123E-05   112   0.217E-02    0.719E-03
DAV:   5    -0.102159987734E+03   -0.24139E-05   -0.32874E-06   112   0.721E-03    0.412E-03
DAV:   6    -0.102159992352E+03   -0.46172E-05   -0.97918E-07    80   0.368E-03    0.162E-03
DAV:   7    -0.102159999020E+03   -0.66682E-05   -0.62505E-07    88   0.286E-03    0.734E-04
DAV:   8    -0.102160006566E+03   -0.75464E-05   -0.34592E-07    88   0.194E-03    0.486E-04
DAV:   9    -0.102160012336E+03   -0.57701E-05   -0.29744E-07    88   0.135E-03    0.256E-04
DAV:  10    -0.102160017776E+03   -0.54398E-05   -0.36291E-07    88   0.127E-03    0.144E-04
DAV:  11    -0.102160019234E+03   -0.14577E-05   -0.68508E-08    88   0.640E-04    0.806E-05
DAV:  12    -0.102160020296E+03   -0.10619E-05   -0.35565E-08    88   0.421E-04    0.645E-05
DAV:  13    -0.102160021081E+03   -0.78516E-06   -0.21296E-08    88   0.330E-04
   7 F= -.10216002E+03 E0= -.10216002E+03  d E =-.115350E-01
       N       E                     dE             d eps       ncg     rms          rms(c)
DAV:   1    -0.102164570540E+03   -0.45502E-02   -0.22397E-01    84   0.221E+00    0.151E-01
DAV:   2    -0.102164930197E+03   -0.35966E-03   -0.68444E-03   120   0.329E-01    0.832E-02
DAV:   3    -0.102164855743E+03    0.74454E-04   -0.41552E-04   128   0.855E-02    0.420E-02
DAV:   4    -0.102164855597E+03    0.14602E-06   -0.11826E-04   120   0.475E-02    0.127E-02
DAV:   5    -0.102164858922E+03   -0.33246E-05   -0.20229E-05   112   0.182E-02    0.911E-03
DAV:   6    -0.102164859844E+03   -0.92243E-06   -0.12134E-06    88   0.453E-03
   8 F= -.10216486E+03 E0= -.10216486E+03  d E =-.483876E-02
       N       E                     dE             d eps       ncg     rms          rms(c)
DAV:   1    -0.102164899915E+03   -0.40993E-04   -0.22149E-03    84   0.219E-01    0.152E-02
DAV:   2    -0.102164904952E+03   -0.50378E-05   -0.69223E-05   120   0.332E-02    0.841E-03
DAV:   3    -0.102164905727E+03   -0.77466E-06   -0.43144E-06   128   0.889E-03
   9 F= -.10216491E+03 E0= -.10216491E+03  d E =-.488465E-02
       N       E                     dE             d eps       ncg     rms          rms(c)
DAV:   1    -0.102166902009E+03   -0.19971E-02   -0.71152E-02    84   0.122E+00    0.882E-02
DAV:   2    -0.102167075063E+03   -0.17305E-03   -0.27148E-03   120   0.202E-01    0.490E-02
DAV:   3    -0.102167043721E+03    0.31343E-04   -0.12154E-04   128   0.427E-02    0.270E-02
DAV:   4    -0.102167033279E+03    0.10441E-04   -0.36081E-05   120   0.245E-02    0.633E-03
DAV:   5    -0.102167031145E+03    0.21347E-05   -0.79314E-06   120   0.114E-02    0.482E-03
DAV:   6    -0.102167031461E+03   -0.31599E-06   -0.89462E-07    88   0.444E-03
  10 F= -.10216703E+03 E0= -.10216703E+03  d E =-.212573E-02
       N       E                     dE             d eps       ncg     rms          rms(c)
DAV:   1    -0.102167385175E+03   -0.35403E-03   -0.42163E-02    84   0.938E-01    0.676E-02
DAV:   2    -0.102167488804E+03   -0.10363E-03   -0.16052E-03   120   0.155E-01    0.376E-02
DAV:   3    -0.102167469893E+03    0.18911E-04   -0.72536E-05   128   0.330E-02    0.206E-02
DAV:   4    -0.102167463819E+03    0.60736E-05   -0.20765E-05   120   0.189E-02    0.491E-03
DAV:   5    -0.102167463834E+03   -0.15325E-07   -0.48919E-06   120   0.903E-03
  11 F= -.10216746E+03 E0= -.10216746E+03  d E =-.255811E-02
       N       E                     dE             d eps       ncg     rms          rms(c)
DAV:   1    -0.102168652350E+03   -0.11885E-02   -0.10014E-01    84   0.143E+00    0.979E-02
DAV:   2    -0.102168799032E+03   -0.14668E-03   -0.26347E-03   120   0.200E-01    0.536E-02
DAV:   3    -0.102168760360E+03    0.38673E-04   -0.15402E-04   128   0.506E-02    0.261E-02
DAV:   4    -0.102168761759E+03   -0.13989E-05   -0.53093E-05   120   0.278E-02    0.748E-03
DAV:   5    -0.102168763712E+03   -0.19533E-05   -0.51483E-06   120   0.974E-03    0.456E-03
DAV:   6    -0.102168765884E+03   -0.21720E-05   -0.71007E-07    88   0.363E-03    0.169E-03
DAV:   7    -0.102168768647E+03   -0.27632E-05   -0.28481E-07    88   0.225E-03    0.531E-04
DAV:   8    -0.102168772798E+03   -0.41513E-05   -0.21554E-07    88   0.195E-03    0.612E-04
DAV:   9    -0.102168775903E+03   -0.31044E-05   -0.16847E-07    88   0.149E-03    0.245E-04
DAV:  10    -0.102168778111E+03   -0.22079E-05   -0.89161E-08    88   0.938E-04    0.203E-04
DAV:  11    -0.102168779418E+03   -0.13072E-05   -0.37045E-08    88   0.613E-04    0.103E-04
DAV:  12    -0.102168780398E+03   -0.98056E-06   -0.23062E-08    88   0.396E-04
  12 F= -.10216878E+03 E0= -.10216878E+03  d E =-.131656E-02
       N       E                     dE             d eps       ncg     rms          rms(c)
DAV:   1    -0.102168822706E+03   -0.43289E-04   -0.45234E-03    84   0.304E-01    0.209E-02
DAV:   2    -0.102168829199E+03   -0.64929E-05   -0.11918E-04   120   0.426E-02    0.114E-02
DAV:   3    -0.102168827302E+03    0.18978E-05   -0.69343E-06   128   0.107E-02    0.556E-03
DAV:   4    -0.102168827209E+03    0.92944E-07   -0.23662E-06   112   0.577E-03
  13 F= -.10216883E+03 E0= -.10216883E+03  d E =-.136337E-02
       N       E                     dE             d eps       ncg     rms          rms(c)
DAV:   1    -0.102169920847E+03   -0.10935E-02   -0.87662E-02    84   0.134E+00    0.972E-02
DAV:   2    -0.102170030122E+03   -0.10928E-03   -0.20989E-03   112   0.180E-01    0.505E-02
DAV:   3    -0.102169994946E+03    0.35176E-04   -0.11438E-04   120   0.412E-02    0.253E-02
DAV:   4    -0.102169990260E+03    0.46861E-05   -0.33213E-05   112   0.197E-02    0.696E-03
DAV:   5    -0.102169989994E+03    0.26573E-06   -0.20236E-06    96   0.614E-03
  14 F= -.10216999E+03 E0= -.10216999E+03  d E =-.116279E-02
       N       E                     dE             d eps       ncg     rms          rms(c)
DAV:   1    -0.102170067125E+03   -0.76865E-04   -0.12297E-02    84   0.502E-01    0.367E-02
DAV:   2    -0.102170081865E+03   -0.14740E-04   -0.30118E-04   112   0.682E-02    0.188E-02
DAV:   3    -0.102170076128E+03    0.57373E-05   -0.15972E-05   128   0.154E-02    0.949E-03
DAV:   4    -0.102170075686E+03    0.44121E-06   -0.47215E-06   120   0.741E-03
  15 F= -.10217008E+03 E0= -.10217008E+03  d E =-.124848E-02
       N       E                     dE             d eps       ncg     rms          rms(c)
DAV:   1    -0.102170350714E+03   -0.27459E-03   -0.22733E-02    84   0.666E-01    0.503E-02
DAV:   2    -0.102170413363E+03   -0.62649E-04   -0.82025E-04   120   0.111E-01    0.275E-02
DAV:   3    -0.102170404879E+03    0.84846E-05   -0.29507E-05   120   0.226E-02    0.143E-02
DAV:   4    -0.102170405534E+03   -0.65568E-06   -0.12076E-05   112   0.127E-02    0.364E-03
DAV:   5    -0.102170406254E+03   -0.72008E-06   -0.10151E-06    88   0.474E-03
  16 F= -.10217041E+03 E0= -.10217041E+03  d E =-.330568E-03
