       N       E                     dE             d eps       ncg     rms          rms(c)
DAV:   1     0.201748487383E+03    0.20175E+03   -0.10482E+04   116   0.546E+02
DAV:   2    -0.299726606076E+02   -0.23172E+03   -0.21689E+03   144   0.103E+02
DAV:   3    -0.103004054016E+03   -0.73031E+02   -0.72859E+02   104   0.545E+01
DAV:   4    -0.107115955322E+03   -0.41119E+01   -0.40962E+01   112   0.187E+01
DAV:   5    -0.107192258708E+03   -0.76303E-01   -0.76247E-01   128   0.263E+00    0.151E+01
DAV:   6    -0.103954178045E+03    0.32381E+01   -0.16017E+00   104   0.460E+00    0.876E+00
DAV:   7    -0.102255289495E+03    0.16989E+01   -0.41193E+00   104   0.677E+00    0.121E+00
DAV:   8    -0.102205458743E+03    0.49831E-01   -0.26882E-01   104   0.219E+00    0.622E-01
DAV:   9    -0.102169605256E+03    0.35853E-01   -0.80489E-02   120   0.809E-01    0.329E-01
DAV:  10    -0.102169558281E+03    0.46975E-04   -0.31759E-03   112   0.232E-01    0.166E-01
DAV:  11    -0.102169649192E+03   -0.90911E-04   -0.61959E-03   104   0.234E-01    0.777E-02
DAV:  12    -0.102173651661E+03   -0.40025E-02   -0.11342E-03   104   0.996E-02    0.551E-02
DAV:  13    -0.102178356443E+03   -0.47048E-02   -0.19950E-03   104   0.112E-01    0.342E-02
DAV:  14    -0.102182830148E+03   -0.44737E-02   -0.40766E-04   112   0.585E-02    0.155E-02
DAV:  15    -0.102187241959E+03   -0.44118E-02   -0.55441E-04   112   0.616E-02    0.148E-02
DAV:  16    -0.102187981673E+03   -0.73971E-03   -0.32260E-05   112   0.177E-02    0.648E-03
DAV:  17    -0.102189082712E+03   -0.11010E-02   -0.90164E-05   102   0.229E-02    0.285E-03
DAV:  18    -0.102189340482E+03   -0.25777E-03   -0.84730E-06   104   0.821E-03    0.189E-03
DAV:  19    -0.102189515293E+03   -0.17481E-03   -0.60751E-06    96   0.602E-03    0.153E-03
DAV:  20    -0.102189571937E+03   -0.56644E-04   -0.11230E-06    88   0.360E-03    0.642E-04
DAV:  21    -0.102189599193E+03   -0.27256E-04   -0.85832E-07    80   0.241E-03    0.603E-04
DAV:  22    -0.102189606168E+03   -0.69750E-05   -0.18605E-07    88   0.145E-03    0.204E-04
DAV:  23    -0.102189609622E+03   -0.34532E-05   -0.73108E-08    80   0.775E-04    0.165E-04
DAV:  24    -0.102189612493E+03   -0.28710E-05   -0.40035E-08    80   0.547E-04    0.119E-04
DAV:  25    -0.102189613099E+03   -0.60660E-06   -0.13188E-08    80   0.319E-04
   1 F= -.10218961E+03 E0= -.10218961E+03  d E =-.102190E+03
       N       E                     dE             d eps       ncg     rms          rms(c)
DAV:   1    -0.102373880500E+03   -0.18427E+00   -0.73494E+00    84   0.115E+01    0.117E+00
DAV:   2    -0.102397826207E+03   -0.23946E-01   -0.32387E-01   120   0.226E+00    0.597E-01
DAV:   3    -0.102392636858E+03    0.51893E-02   -0.13481E-02   120   0.463E-01    0.289E-01
DAV:   4    -0.102391491823E+03    0.11450E-02   -0.66069E-03   112   0.278E-01    0.676E-02
DAV:   5    -0.102391324143E+03    0.16768E-03   -0.47819E-04   120   0.100E-01    0.408E-02
DAV:   6    -0.102391355812E+03   -0.31669E-04   -0.16760E-04   120   0.533E-02    0.206E-02
DAV:   7    -0.102391519192E+03   -0.16338E-03   -0.71629E-05   118   0.384E-02    0.989E-03
DAV:   8    -0.102391609167E+03   -0.89975E-04   -0.22374E-05   112   0.191E-02    0.988E-03
DAV:   9    -0.102391677585E+03   -0.68418E-04   -0.25867E-06   104   0.598E-03    0.632E-03
DAV:  10    -0.102391853768E+03   -0.17618E-03   -0.18389E-05   104   0.103E-02    0.391E-03
DAV:  11    -0.102391879898E+03   -0.26130E-04   -0.69461E-07    96   0.358E-03    0.219E-03
DAV:  12    -0.102391965098E+03   -0.85200E-04   -0.53172E-06   104   0.601E-03    0.911E-04
DAV:  13    -0.102391991583E+03   -0.26485E-04   -0.88869E-07    88   0.334E-03    0.737E-04
DAV:  14    -0.102392011014E+03   -0.19431E-04   -0.46241E-07    88   0.178E-03    0.545E-04
DAV:  15    -0.102392023664E+03   -0.12650E-04   -0.31195E-07    88   0.125E-03    0.530E-04
DAV:  16    -0.102392029000E+03   -0.53367E-05   -0.78496E-08    88   0.844E-04    0.324E-04
DAV:  17    -0.102392030655E+03   -0.16549E-05   -0.28427E-08    88   0.489E-04    0.254E-04
DAV:  18    -0.102392032122E+03   -0.14664E-05   -0.22735E-08    78   0.513E-04    0.114E-04
DAV:  19    -0.102392032667E+03   -0.54570E-06   -0.10061E-08    88   0.296E-04
   2 F= -.10239203E+03 E0= -.10239203E+03  d E =-.202420E+00
       N       E                     dE             d eps       ncg     rms          rms(c)
DAV:   1    -0.102392732390E+03   -0.70027E-03   -0.23193E-02    84   0.651E-01    0.639E-02
DAV:   2    -0.102392799631E+03   -0.67242E-04   -0.10168E-03   120   0.126E-01    0.346E-02
DAV:   3    -0.102392778907E+03    0.20724E-04   -0.45181E-05   120   0.267E-02    0.166E-02
DAV:   4    -0.102392771344E+03    0.75634E-05   -0.20608E-05   112   0.156E-02    0.438E-03
DAV:   5    -0.102392770400E+03    0.94339E-06   -0.13566E-06    88   0.562E-03
   3 F= -.10239277E+03 E0= -.10239277E+03  d E =-.203157E+00
       N       E                     dE             d eps       ncg     rms          rms(c)
DAV:   1    -0.102442759517E+03   -0.49988E-01   -0.12182E+00    84   0.477E+00    0.472E-01
DAV:   2    -0.102448267597E+03   -0.55081E-02   -0.67456E-02   120   0.969E-01    0.222E-01
DAV:   3    -0.102447784932E+03    0.48266E-03   -0.28025E-03   128   0.212E-01    0.117E-01
DAV:   4    -0.102447719115E+03    0.65817E-04   -0.78944E-04   112   0.104E-01    0.389E-02
DAV:   5    -0.102447700439E+03    0.18676E-04   -0.72622E-05   120   0.397E-02    0.214E-02
DAV:   6    -0.102447702303E+03   -0.18642E-05   -0.24549E-05   120   0.223E-02    0.991E-03
DAV:   7    -0.102447727010E+03   -0.24706E-04   -0.12740E-05   104   0.154E-02    0.363E-03
DAV:   8    -0.102447741686E+03   -0.14677E-04   -0.29321E-06    96   0.711E-03    0.311E-03
DAV:   9    -0.102447753636E+03   -0.11950E-04   -0.50370E-07    88   0.249E-03    0.180E-03
DAV:  10    -0.102447780580E+03   -0.26944E-04   -0.26211E-06    88   0.462E-03    0.121E-03
DAV:  11    -0.102447786897E+03   -0.63162E-05   -0.40606E-07    88   0.213E-03    0.773E-04
DAV:  12    -0.102447797796E+03   -0.10900E-04   -0.63626E-07    80   0.201E-03    0.306E-04
DAV:  13    -0.102447802232E+03   -0.44353E-05   -0.22867E-07    88   0.122E-03    0.359E-04
DAV:  14    -0.102447805908E+03   -0.36760E-05   -0.11715E-07    88   0.992E-04    0.170E-04
DAV:  15    -0.102447806968E+03   -0.10600E-05   -0.44237E-08    88   0.518E-04    0.117E-04
DAV:  16    -0.102447807479E+03   -0.51102E-06   -0.89683E-09    88   0.274E-04
   4 F= -.10244781E+03 E0= -.10244781E+03  d E =-.550371E-01
       N       E                     dE             d eps       ncg     rms          rms(c)
DAV:   1    -0.102452763083E+03   -0.49561E-02   -0.26184E-01    84   0.221E+00    0.215E-01
DAV:   2    -0.102453963184E+03   -0.12001E-02   -0.14746E-02   120   0.453E-01    0.104E-01
DAV:   3    -0.102453859267E+03    0.10392E-03   -0.62291E-04   128   0.999E-02    0.543E-02
DAV:   4    -0.102453845837E+03    0.13431E-04   -0.17312E-04   112   0.485E-02    0.189E-02
DAV:   5    -0.102453838573E+03    0.72640E-05   -0.15524E-05   120   0.185E-02    0.101E-02
DAV:   6    -0.102453837673E+03    0.89966E-06   -0.56766E-06   112   0.107E-02
   5 F= -.10245384E+03 E0= -.10245384E+03  d E =-.610673E-01
       N       E                     dE             d eps       ncg     rms          rms(c)
DAV:   1    -0.102466217421E+03   -0.12379E-01   -0.38663E-01    84   0.282E+00    0.231E-01
DAV:   2    -0.102467208135E+03   -0.99071E-03   -0.15200E-02   112   0.483E-01    0.122E-01
DAV:   3    -0.102467066746E+03    0.14139E-03   -0.62231E-04   128   0.983E-02    0.668E-02
DAV:   4    -0.102467027178E+03    0.39568E-04   -0.20375E-04   112   0.511E-02    0.166E-02
DAV:   5    -0.102467021869E+03    0.53084E-05   -0.25096E-05   120   0.198E-02    0.116E-02
DAV:   6    -0.102467028494E+03   -0.66243E-05   -0.59267E-06   112   0.934E-03    0.502E-03
DAV:   7    -0.102467046278E+03   -0.17784E-04   -0.25756E-06   104   0.557E-03    0.183E-03
DAV:   8    -0.102467063107E+03   -0.16829E-04   -0.47207E-07    88   0.220E-03    0.101E-03
DAV:   9    -0.102467086279E+03   -0.23172E-04   -0.15713E-06    88   0.277E-03    0.607E-04
DAV:  10    -0.102467098826E+03   -0.12547E-04   -0.54714E-07    88   0.177E-03    0.302E-04
DAV:  11    -0.102467107920E+03   -0.90938E-05   -0.49773E-07    80   0.147E-03    0.221E-04
DAV:  12    -0.102467111512E+03   -0.35917E-05   -0.91694E-08    88   0.759E-04    0.128E-04
DAV:  13    -0.102467113849E+03   -0.23377E-05   -0.57434E-08    80   0.572E-04    0.997E-05
DAV:  14    -0.102467114800E+03   -0.95061E-06   -0.23885E-08    88   0.356E-04
   6 F= -.10246711E+03 E0= -.10246711E+03  d E =-.132771E-01
       N       E                     dE             d eps       ncg     rms          rms(c)
DAV:   1    -0.102467841579E+03   -0.72773E-03   -0.36325E-02    84   0.866E-01    0.711E-02
DAV:   2    -0.102467937504E+03   -0.95926E-04   -0.14487E-03   112   0.149E-01    0.376E-02
DAV:   3    -0.102467925100E+03    0.12405E-04   -0.58913E-05   128   0.303E-02    0.206E-02
DAV:   4    -0.102467921149E+03    0.39504E-05   -0.19325E-05   104   0.158E-02    0.516E-03
DAV:   5    -0.102467919360E+03    0.17894E-05   -0.23127E-06    96   0.616E-03    0.339E-03
DAV:   6    -0.102467919083E+03    0.27729E-06   -0.67114E-07    88   0.331E-03
   7 F= -.10246792E+03 E0= -.10246792E+03  d E =-.140814E-01
       N       E                     dE             d eps       ncg     rms          rms(c)
DAV:   1    -0.102478153340E+03   -0.10234E-01   -0.40982E-01    84   0.301E+00    0.195E-01
DAV:   2    -0.102478322006E+03   -0.16867E-03   -0.79509E-03   120   0.368E-01    0.104E-01
DAV:   3    -0.102478145825E+03    0.17618E-03   -0.70508E-04   128   0.109E-01    0.485E-02
DAV:   4    -0.102478139939E+03    0.58855E-05   -0.23505E-04   120   0.613E-02    0.175E-02
DAV:   5    -0.102478138204E+03    0.17356E-05   -0.28239E-05   112   0.219E-02    0.117E-02
DAV:   6    -0.102478137762E+03    0.44137E-06   -0.32209E-06   112   0.734E-03
   8 F= -.10247814E+03 E0= -.10247814E+03  d E =-.102187E-01
       N       E                     dE             d eps       ncg     rms          rms(c)
DAV:   1    -0.102480300091E+03   -0.21619E-02   -0.21085E-01    84   0.216E+00    0.140E-01
DAV:   2    -0.102480384769E+03   -0.84678E-04   -0.41139E-03   120   0.265E-01    0.748E-02
DAV:   3    -0.102480292644E+03    0.92125E-04   -0.36508E-04   128   0.788E-02    0.350E-02
DAV:   4    -0.102480288619E+03    0.40246E-05   -0.12263E-04   120   0.447E-02    0.126E-02
DAV:   5    -0.102480289592E+03   -0.97299E-06   -0.15809E-05   112   0.165E-02    0.851E-03
DAV:   6    -0.102480293715E+03   -0.41227E-05   -0.16104E-06    96   0.553E-03    0.267E-03
DAV:   7    -0.102480299884E+03   -0.61694E-05   -0.75241E-07    88   0.367E-03    0.113E-03
DAV:   8    -0.102480310953E+03   -0.11069E-04   -0.59724E-07    88   0.337E-03    0.761E-04
DAV:   9    -0.102480320096E+03   -0.91430E-05   -0.58948E-07    88   0.279E-03    0.495E-04
DAV:  10    -0.102480326641E+03   -0.65452E-05   -0.33028E-07    88   0.178E-03    0.285E-04
DAV:  11    -0.102480329238E+03   -0.25969E-05   -0.71826E-08    88   0.900E-04    0.178E-04
DAV:  12    -0.102480331706E+03   -0.24676E-05   -0.58650E-08    88   0.645E-04    0.101E-04
DAV:  13    -0.102480333739E+03   -0.20334E-05   -0.58720E-08    88   0.561E-04    0.593E-05
DAV:  14    -0.102480334629E+03   -0.88957E-06   -0.15813E-08    88   0.320E-04
   9 F= -.10248033E+03 E0= -.10248033E+03  d E =-.124155E-01
       N       E                     dE             d eps       ncg     rms          rms(c)
DAV:   1    -0.102486131111E+03   -0.57974E-02   -0.32652E-01    84   0.264E+00    0.167E-01
DAV:   2    -0.102486520817E+03   -0.38971E-03   -0.78147E-03   120   0.359E-01    0.922E-02
DAV:   3    -0.102486388728E+03    0.13209E-03   -0.47222E-04   128   0.875E-02    0.453E-02
DAV:   4    -0.102486370358E+03    0.18370E-04   -0.15180E-04   120   0.465E-02    0.121E-02
DAV:   5    -0.102486363826E+03    0.65313E-05   -0.17433E-05   112   0.180E-02    0.823E-03
DAV:   6    -0.102486363288E+03    0.53830E-06   -0.38690E-06   112   0.862E-03
  10 F= -.10248636E+03 E0= -.10248636E+03  d E =-.602866E-02
       N       E                     dE             d eps       ncg     rms          rms(c)
DAV:   1    -0.102487425446E+03   -0.10616E-02   -0.18638E-01    84   0.199E+00    0.126E-01
DAV:   2    -0.102487649114E+03   -0.22367E-03   -0.45152E-03   120   0.273E-01    0.700E-02
DAV:   3    -0.102487569864E+03    0.79250E-04   -0.27284E-04   128   0.666E-02    0.345E-02
DAV:   4    -0.102487557672E+03    0.12192E-04   -0.86479E-05   120   0.355E-02    0.919E-03
DAV:   5    -0.102487557007E+03    0.66520E-06   -0.10919E-05   120   0.143E-02    0.638E-03
DAV:   6    -0.102487560926E+03   -0.39189E-05   -0.22356E-06    96   0.696E-03    0.358E-03
DAV:   7    -0.102487570875E+03   -0.99493E-05   -0.85578E-07    80   0.486E-03    0.913E-04
DAV:   8    -0.102487578129E+03   -0.72537E-05   -0.72006E-07    88   0.355E-03    0.115E-03
DAV:   9    -0.102487592755E+03   -0.14626E-04   -0.93188E-07    78   0.336E-03    0.643E-04
DAV:  10    -0.102487597481E+03   -0.47258E-05   -0.42676E-07    88   0.208E-03    0.500E-04
DAV:  11    -0.102487599796E+03   -0.23155E-05   -0.12108E-07    88   0.130E-03    0.233E-04
DAV:  12    -0.102487603357E+03   -0.35603E-05   -0.14374E-07    80   0.978E-04    0.240E-04
DAV:  13    -0.102487605240E+03   -0.18838E-05   -0.68261E-08    88   0.618E-04    0.998E-05
DAV:  14    -0.102487606417E+03   -0.11762E-05   -0.34322E-08    88   0.422E-04    0.447E-05
DAV:  15    -0.102487606870E+03   -0.45358E-06   -0.10485E-08    88   0.242E-04
  11 F= -.10248761E+03 E0= -.10248761E+03  d E =-.727224E-02
       N       E                     dE             d eps       ncg     rms          rms(c)
DAV:   1    -0.102491327479E+03   -0.37211E-02   -0.45952E-01    84   0.310E+00    0.195E-01
DAV:   2    -0.102491947082E+03   -0.61960E-03   -0.11034E-02   120   0.418E-01    0.111E-01
DAV:   3    -0.102491763181E+03    0.18390E-03   -0.60956E-04   128   0.103E-01    0.525E-02
DAV:   4    -0.102491763781E+03   -0.59960E-06   -0.25748E-04   120   0.575E-02    0.156E-02
DAV:   5    -0.102491764425E+03   -0.64443E-06   -0.18521E-05   112   0.181E-02    0.850E-03
DAV:   6    -0.102491765876E+03   -0.14510E-05   -0.38846E-06   112   0.723E-03    0.312E-03
DAV:   7    -0.102491768969E+03   -0.30929E-05   -0.58872E-07    88   0.334E-03    0.880E-04
DAV:   8    -0.102491771789E+03   -0.28201E-05   -0.23539E-07    88   0.190E-03    0.817E-04
DAV:   9    -0.102491775019E+03   -0.32296E-05   -0.11032E-07    88   0.126E-03    0.318E-04
DAV:  10    -0.102491779348E+03   -0.43292E-05   -0.30221E-07    88   0.149E-03    0.464E-04
DAV:  11    -0.102491780000E+03   -0.65235E-06   -0.40631E-08    88   0.734E-04
  12 F= -.10249178E+03 E0= -.10249178E+03  d E =-.417313E-02
       N       E                     dE             d eps       ncg     rms          rms(c)
DAV:   1    -0.102491855370E+03   -0.76022E-04   -0.13363E-02    84   0.529E-01    0.333E-02
DAV:   2    -0.102491872545E+03   -0.17175E-04   -0.32073E-04   120   0.713E-02    0.190E-02
DAV:   3    -0.102491866885E+03    0.56598E-05   -0.17747E-05   128   0.175E-02    0.897E-03
DAV:   4    -0.102491866985E+03   -0.10027E-06   -0.75041E-06   120   0.984E-03
  13 F= -.10249187E+03 E0= -.10249187E+03  d E =-.426011E-02
       N       E                     dE             d eps       ncg     rms          rms(c)
DAV:   1    -0.102494097557E+03   -0.22307E-02   -0.42669E-01    84   0.294E+00    0.209E-01
DAV:   2    -0.102494754117E+03   -0.65656E-03   -0.11174E-02   120   0.412E-01    0.113E-01
DAV:   3    -0.102494583261E+03    0.17086E-03   -0.52823E-04   120   0.923E-02    0.568E-02
DAV:   4    -0.102494567649E+03    0.15612E-04   -0.19679E-04   112   0.495E-02    0.153E-02
DAV:   5    -0.102494568723E+03   -0.10739E-05   -0.15029E-05   112   0.166E-02    0.815E-03
DAV:   6    -0.102494571596E+03   -0.28721E-05   -0.35002E-06   104   0.686E-03    0.348E-03
DAV:   7    -0.102494577076E+03   -0.54804E-05   -0.89940E-07    88   0.373E-03    0.912E-04
DAV:   8    -0.102494580980E+03   -0.39038E-05   -0.25358E-07    88   0.190E-03    0.712E-04
DAV:   9    -0.102494585958E+03   -0.49786E-05   -0.20251E-07    80   0.141E-03    0.286E-04
DAV:  10    -0.102494591161E+03   -0.52026E-05   -0.34150E-07    80   0.139E-03    0.348E-04
DAV:  11    -0.102494592628E+03   -0.14670E-05   -0.55023E-08    88   0.753E-04    0.161E-04
DAV:  12    -0.102494594309E+03   -0.16814E-05   -0.62776E-08    80   0.604E-04    0.101E-04
DAV:  13    -0.102494595160E+03   -0.85069E-06   -0.25167E-08    88   0.364E-04
  14 F= -.10249460E+03 E0= -.10249460E+03  d E =-.272818E-02
       N       E                     dE             d eps       ncg     rms          rms(c)
DAV:   1    -0.102494635973E+03   -0.41663E-04   -0.57537E-03    84   0.342E-01    0.242E-02
DAV:   2    -0.102494646374E+03   -0.10401E-04   -0.15076E-04   120   0.479E-02    0.130E-02
DAV:   3    -0.102494644959E+03    0.14143E-05   -0.71844E-06   128   0.107E-02    0.654E-03
DAV:   4    -0.102494645378E+03   -0.41859E-06   -0.25472E-06   104   0.571E-03
  15 F= -.10249465E+03 E0= -.10249465E+03  d E =-.277839E-02
       N       E                     dE             d eps       ncg     rms          rms(c)
DAV:   1    -0.102494860750E+03   -0.21579E-03   -0.37857E-02    84   0.850E-01    0.757E-02
DAV:   2    -0.102494995854E+03   -0.13510E-03   -0.17210E-03   120   0.159E-01    0.389E-02
DAV:   3    -0.102494978400E+03    0.17454E-04   -0.64260E-05   120   0.337E-02    0.210E-02
DAV:   4    -0.102494975693E+03    0.27070E-05   -0.28421E-05   112   0.208E-02    0.547E-03
DAV:   5    -0.102494974870E+03    0.82264E-06   -0.31593E-06   104   0.820E-03
  16 F= -.10249497E+03 E0= -.10249497E+03  d E =-.329492E-03
       N       E                     dE             d eps       ncg     rms          rms(c)
DAV:   1    -0.102495012244E+03   -0.36551E-04   -0.26033E-03    84   0.223E-01    0.192E-02
DAV:   2    -0.102495021932E+03   -0.96876E-05   -0.11247E-04   120   0.409E-02    0.103E-02
DAV:   3    -0.102495021747E+03    0.18461E-06   -0.46361E-06   120   0.910E-03
  17 F= -.10249502E+03 E0= -.10249502E+03  d E =-.376369E-03
       N       E                     dE             d eps       ncg     rms          rms(c)
DAV:   1    -0.102495157547E+03   -0.13562E-03   -0.82752E-03    84   0.402E-01    0.318E-02
DAV:   2    -0.102495187724E+03   -0.30177E-04   -0.40254E-04   120   0.771E-02    0.186E-02
DAV:   3    -0.102495184914E+03    0.28105E-05   -0.12982E-05   120   0.149E-02    0.107E-02
DAV:   4    -0.102495184059E+03    0.85518E-06   -0.47478E-06   104   0.915E-03
  18 F= -.10249518E+03 E0= -.10249518E+03  d E =-.162312E-03
