       N       E                     dE             d eps       ncg     rms          rms(c)
DAV:   1     0.244203086090E+03    0.24420E+03   -0.10209E+04   120   0.484E+02
DAV:   2    -0.241181386336E+02   -0.26832E+03   -0.25413E+03   156   0.918E+01
DAV:   3    -0.103794868962E+03   -0.79677E+02   -0.79459E+02   120   0.553E+01
DAV:   4    -0.107682090192E+03   -0.38872E+01   -0.38738E+01   132   0.176E+01
DAV:   5    -0.107749086337E+03   -0.66996E-01   -0.66931E-01   156   0.259E+00    0.157E+01
DAV:   6    -0.104224658539E+03    0.35244E+01   -0.16095E+00   108   0.437E+00    0.906E+00
DAV:   7    -0.102413417414E+03    0.18112E+01   -0.43288E+00   120   0.640E+00    0.132E+00
DAV:   8    -0.102358832464E+03    0.54585E-01   -0.33801E-01   132   0.222E+00    0.692E-01
DAV:   9    -0.102325742582E+03    0.33090E-01   -0.61825E-02   132   0.676E-01    0.359E-01
DAV:  10    -0.102323908532E+03    0.18341E-02   -0.34373E-03   132   0.201E-01    0.152E-01
DAV:  11    -0.102322507273E+03    0.14013E-02   -0.63924E-03   120   0.216E-01    0.105E-01
DAV:  12    -0.102327598808E+03   -0.50915E-02   -0.14749E-03   120   0.105E-01    0.540E-02
DAV:  13    -0.102331522541E+03   -0.39237E-02   -0.19465E-03   132   0.108E-01    0.427E-02
DAV:  14    -0.102334556171E+03   -0.30336E-02   -0.17214E-04   144   0.427E-02    0.225E-02
DAV:  15    -0.102339872750E+03   -0.53166E-02   -0.60018E-04   108   0.595E-02    0.139E-02
DAV:  16    -0.102341231016E+03   -0.13583E-02   -0.73522E-05   132   0.263E-02    0.835E-03
DAV:  17    -0.102342726072E+03   -0.14951E-02   -0.15148E-04   120   0.258E-02    0.710E-03
DAV:  18    -0.102342947890E+03   -0.22182E-03   -0.50939E-06   144   0.574E-03    0.201E-03
DAV:  19    -0.102343230095E+03   -0.28221E-03   -0.13496E-05   108   0.788E-03    0.209E-03
DAV:  20    -0.102343279421E+03   -0.49326E-04   -0.78268E-07   108   0.289E-03    0.841E-04
DAV:  21    -0.102343319934E+03   -0.40513E-04   -0.11749E-06    96   0.248E-03    0.491E-04
DAV:  22    -0.102343328912E+03   -0.89773E-05   -0.13371E-07   108   0.111E-03    0.243E-04
DAV:  23    -0.102343333168E+03   -0.42563E-05   -0.83042E-08   108   0.665E-04    0.190E-04
DAV:  24    -0.102343337067E+03   -0.38988E-05   -0.55687E-08   108   0.553E-04    0.109E-04
DAV:  25    -0.102343337773E+03   -0.70654E-06   -0.49483E-09   108   0.279E-04
   1 F= -.10234334E+03 E0= -.10234334E+03  d E =-.688307E-11
       N       E                     dE             d eps       ncg     rms          rms(c)
DAV:   1    -0.102339704104E+03    0.36330E-02   -0.82704E-02   120   0.827E-01    0.127E-01
DAV:   2    -0.102340049332E+03   -0.34523E-03   -0.39152E-03   132   0.211E-01    0.561E-02
DAV:   3    -0.102340037228E+03    0.12104E-04   -0.14527E-04   132   0.448E-02    0.292E-02
DAV:   4    -0.102340040536E+03   -0.33083E-05   -0.33434E-05   132   0.216E-02    0.850E-03
DAV:   5    -0.102340039878E+03    0.65814E-06   -0.59208E-06   132   0.963E-03
   2 F= -.10234004E+03 E0= -.10234004E+03  d E =-.712502E-11
       N       E                     dE             d eps       ncg     rms          rms(c)
DAV:   1    -0.102339116131E+03    0.92440E-03   -0.32994E-01    96   0.167E+00    0.260E-01
DAV:   2    -0.102340492774E+03   -0.13766E-02   -0.15594E-02   132   0.421E-01    0.112E-01
DAV:   3    -0.102340447382E+03    0.45392E-04   -0.58145E-04   132   0.891E-02    0.597E-02
DAV:   4    -0.102340464078E+03   -0.16696E-04   -0.13734E-04   132   0.434E-02    0.175E-02
DAV:   5    -0.102340461529E+03    0.25492E-05   -0.24284E-05   132   0.193E-02    0.987E-03
DAV:   6    -0.102340461010E+03    0.51889E-06   -0.50223E-06   132   0.782E-03
   3 F= -.10234046E+03 E0= -.10234046E+03  d E =-.142125E-10
       N       E                     dE             d eps       ncg     rms          rms(c)
DAV:   1    -0.102339709293E+03    0.75224E-03   -0.16671E-01    96   0.119E+00    0.158E-01
DAV:   2    -0.102340384376E+03   -0.67508E-03   -0.73954E-03   132   0.289E-01    0.763E-02
DAV:   3    -0.102340372731E+03    0.11645E-04   -0.26260E-04   132   0.607E-02    0.392E-02
DAV:   4    -0.102340385377E+03   -0.12646E-04   -0.59076E-05   132   0.288E-02    0.116E-02
DAV:   5    -0.102340385140E+03    0.23703E-06   -0.99074E-06   132   0.127E-02
   4 F= -.10234039E+03 E0= -.10234039E+03  d E =-.648363E-11
       N       E                     dE             d eps       ncg     rms          rms(c)
DAV:   1    -0.102338837619E+03    0.15478E-02   -0.33077E-01    96   0.169E+00    0.238E-01
DAV:   2    -0.102340245786E+03   -0.14082E-02   -0.15427E-02   132   0.420E-01    0.110E-01
DAV:   3    -0.102340212509E+03    0.33277E-04   -0.52447E-04   132   0.873E-02    0.574E-02
DAV:   4    -0.102340229777E+03   -0.17268E-04   -0.13321E-04   132   0.432E-02    0.162E-02
DAV:   5    -0.102340225670E+03    0.41072E-05   -0.24145E-05   132   0.191E-02    0.885E-03
DAV:   6    -0.102340225131E+03    0.53813E-06   -0.56094E-06   132   0.811E-03
   5 F= -.10234023E+03 E0= -.10234023E+03  d E =-.244647E-10
       N       E                     dE             d eps       ncg     rms          rms(c)
DAV:   1    -0.102338056169E+03    0.21695E-02   -0.16396E-01    96   0.119E+00    0.162E-01
DAV:   2    -0.102338970147E+03   -0.91398E-03   -0.97355E-03   132   0.327E-01    0.936E-02
DAV:   3    -0.102338932143E+03    0.38005E-04   -0.28934E-04   132   0.669E-02    0.501E-02
DAV:   4    -0.102338939557E+03   -0.74138E-05   -0.10982E-04   132   0.387E-02    0.120E-02
DAV:   5    -0.102338937812E+03    0.17446E-05   -0.18932E-05   132   0.164E-02    0.747E-03
DAV:   6    -0.102338939426E+03   -0.16138E-05   -0.35782E-06   132   0.616E-03    0.461E-03
DAV:   7    -0.102338945053E+03   -0.56274E-05   -0.56643E-07   108   0.274E-03    0.145E-03
DAV:   8    -0.102338950139E+03   -0.50854E-05   -0.42963E-07   120   0.206E-03    0.642E-04
DAV:   9    -0.102338956527E+03   -0.63880E-05   -0.32739E-07   108   0.165E-03    0.496E-04
DAV:  10    -0.102338962923E+03   -0.63963E-05   -0.57802E-07   120   0.157E-03    0.328E-04
DAV:  11    -0.102338964419E+03   -0.14958E-05   -0.38531E-08   108   0.725E-04    0.241E-04
DAV:  12    -0.102338966510E+03   -0.20913E-05   -0.71972E-08   108   0.598E-04    0.112E-04
DAV:  13    -0.102338967407E+03   -0.89666E-06   -0.15246E-08   108   0.309E-04
   6 F= -.10233897E+03 E0= -.10233897E+03  d E =-.161603E-10
       N       E                     dE             d eps       ncg     rms          rms(c)
DAV:   1    -0.102336766402E+03    0.22001E-02   -0.33309E-01    96   0.167E+00    0.266E-01
DAV:   2    -0.102339080570E+03   -0.23142E-02   -0.25058E-02   120   0.504E-01    0.169E-01
DAV:   3    -0.102338913635E+03    0.16694E-03   -0.69848E-04   132   0.107E-01    0.876E-02
DAV:   4    -0.102338914198E+03   -0.56296E-06   -0.41751E-04   132   0.701E-02    0.164E-02
DAV:   5    -0.102338904742E+03    0.94559E-05   -0.60226E-05   132   0.276E-02    0.120E-02
DAV:   6    -0.102338905094E+03   -0.35207E-06   -0.11186E-05   132   0.902E-03    0.784E-03
DAV:   7    -0.102338916810E+03   -0.11716E-04   -0.11517E-06   132   0.359E-03    0.323E-03
DAV:   8    -0.102338934721E+03   -0.17911E-04   -0.17339E-06   132   0.438E-03    0.132E-03
DAV:   9    -0.102338948606E+03   -0.13885E-04   -0.97875E-07   120   0.241E-03    0.150E-03
DAV:  10    -0.102338971640E+03   -0.23034E-04   -0.13713E-06   132   0.240E-03    0.743E-04
DAV:  11    -0.102338975809E+03   -0.41684E-05   -0.91668E-08   108   0.910E-04    0.481E-04
DAV:  12    -0.102338984515E+03   -0.87060E-05   -0.26191E-07   108   0.110E-03    0.272E-04
DAV:  13    -0.102338987150E+03   -0.26354E-05   -0.71890E-08   108   0.574E-04    0.244E-04
DAV:  14    -0.102338989354E+03   -0.22042E-05   -0.19756E-08   108   0.397E-04    0.857E-05
DAV:  15    -0.102338990447E+03   -0.10923E-05   -0.14016E-08   108   0.290E-04    0.784E-05
DAV:  16    -0.102338990961E+03   -0.51462E-06    0.30618E-09   108   0.158E-04
   7 F= -.10233899E+03 E0= -.10233899E+03  d E =-.885049E-11
       N       E                     dE             d eps       ncg     rms          rms(c)
DAV:   1    -0.102338084701E+03    0.90575E-03   -0.19070E-01    96   0.133E+00    0.193E-01
DAV:   2    -0.102339499806E+03   -0.14151E-02   -0.14707E-02   132   0.424E-01    0.120E-01
DAV:   3    -0.102339416062E+03    0.83744E-04   -0.39158E-04   132   0.836E-02    0.660E-02
DAV:   4    -0.102339414897E+03    0.11650E-05   -0.22620E-04   132   0.575E-02    0.121E-02
DAV:   5    -0.102339410294E+03    0.46035E-05   -0.46304E-05   132   0.242E-02    0.983E-03
DAV:   6    -0.102339410918E+03   -0.62410E-06   -0.43348E-06   144   0.659E-03
   8 F= -.10233941E+03 E0= -.10233941E+03  d E =-.103013E-10
       N       E                     dE             d eps       ncg     rms          rms(c)
DAV:   1    -0.102337305554E+03    0.21047E-02   -0.33437E-01    96   0.177E+00    0.262E-01
DAV:   2    -0.102339385664E+03   -0.20801E-02   -0.21321E-02   132   0.505E-01    0.154E-01
DAV:   3    -0.102339310241E+03    0.75423E-04   -0.56811E-04   132   0.941E-02    0.826E-02
DAV:   4    -0.102339307797E+03    0.24444E-05   -0.23055E-04   132   0.581E-02    0.158E-02
DAV:   5    -0.102339298166E+03    0.96308E-05   -0.43731E-05   144   0.248E-02    0.107E-02
DAV:   6    -0.102339297434E+03    0.73177E-06   -0.69958E-06   132   0.972E-03
   9 F= -.10233930E+03 E0= -.10233930E+03  d E =-.128140E-10
       N       E                     dE             d eps       ncg     rms          rms(c)
DAV:   1    -0.102337433522E+03    0.18646E-02   -0.16894E-01    96   0.128E+00    0.184E-01
DAV:   2    -0.102338605693E+03   -0.11722E-02   -0.11734E-02   132   0.382E-01    0.117E-01
DAV:   3    -0.102338577403E+03    0.28290E-04   -0.28160E-04   132   0.700E-02    0.645E-02
DAV:   4    -0.102338597238E+03   -0.19836E-04   -0.17627E-04   120   0.509E-02    0.116E-02
DAV:   5    -0.102338592749E+03    0.44891E-05   -0.40349E-05   132   0.234E-02    0.916E-03
DAV:   6    -0.102338592973E+03   -0.22336E-06   -0.73020E-06   132   0.821E-03
  10 F= -.10233859E+03 E0= -.10233859E+03  d E =-.151490E-10
       N       E                     dE             d eps       ncg     rms          rms(c)
DAV:   1    -0.102335951332E+03    0.26414E-02   -0.34535E-01    96   0.180E+00    0.275E-01
DAV:   2    -0.102338440552E+03   -0.24892E-02   -0.25163E-02   132   0.557E-01    0.181E-01
DAV:   3    -0.102338309608E+03    0.13094E-03   -0.65270E-04   144   0.111E-01    0.890E-02
DAV:   4    -0.102338338056E+03   -0.28447E-04   -0.44169E-04   132   0.772E-02    0.171E-02
DAV:   5    -0.102338321336E+03    0.16719E-04   -0.76075E-05   132   0.320E-02    0.117E-02
DAV:   6    -0.102338321789E+03   -0.45282E-06   -0.15858E-05   132   0.108E-02    0.639E-03
DAV:   7    -0.102338334330E+03   -0.12541E-04   -0.11695E-06   120   0.353E-03    0.281E-03
DAV:   8    -0.102338352097E+03   -0.17766E-04   -0.28205E-06   132   0.480E-03    0.139E-03
DAV:   9    -0.102338368453E+03   -0.16356E-04   -0.14965E-06   132   0.307E-03    0.119E-03
DAV:  10    -0.102338381911E+03   -0.13458E-04   -0.10394E-06   120   0.220E-03    0.428E-04
DAV:  11    -0.102338386584E+03   -0.46731E-05   -0.12596E-07   108   0.950E-04    0.257E-04
DAV:  12    -0.102338393178E+03   -0.65942E-05   -0.31246E-07    96   0.108E-03    0.174E-04
DAV:  13    -0.102338394924E+03   -0.17462E-05   -0.44473E-08   108   0.450E-04    0.178E-04
DAV:  14    -0.102338396910E+03   -0.19856E-05   -0.37318E-08    96   0.428E-04    0.712E-05
DAV:  15    -0.102338397449E+03   -0.53921E-06   -0.35593E-09   108   0.222E-04
  11 F= -.10233840E+03 E0= -.10233840E+03  d E =-.945840E-11
       N       E                     dE             d eps       ncg     rms          rms(c)
DAV:   1    -0.102338673314E+03   -0.27640E-03   -0.17126E-01    96   0.128E+00    0.192E-01
DAV:   2    -0.102339860111E+03   -0.11868E-02   -0.12222E-02   132   0.396E-01    0.121E-01
DAV:   3    -0.102339793770E+03    0.66342E-04   -0.31076E-04   156   0.754E-02    0.632E-02
DAV:   4    -0.102339796463E+03   -0.26930E-05   -0.19116E-04   132   0.527E-02    0.123E-02
DAV:   5    -0.102339790787E+03    0.56754E-05   -0.41681E-05   132   0.236E-02    0.909E-03
DAV:   6    -0.102339791738E+03   -0.95044E-06   -0.80262E-06   132   0.844E-03
  12 F= -.10233979E+03 E0= -.10233979E+03  d E =-.131623E-10
       N       E                     dE             d eps       ncg     rms          rms(c)
DAV:   1    -0.102338246176E+03    0.15446E-02   -0.33180E-01    96   0.171E+00    0.272E-01
DAV:   2    -0.102339997792E+03   -0.17516E-02   -0.18281E-02   132   0.461E-01    0.134E-01
DAV:   3    -0.102339959344E+03    0.38448E-04   -0.57422E-04   132   0.925E-02    0.718E-02
DAV:   4    -0.102339987963E+03   -0.28619E-04   -0.20122E-04   120   0.573E-02    0.159E-02
DAV:   5    -0.102339985219E+03    0.27437E-05   -0.49537E-05   144   0.267E-02    0.117E-02
DAV:   6    -0.102339984412E+03    0.80762E-06   -0.67081E-06   120   0.928E-03
  13 F= -.10233998E+03 E0= -.10233998E+03  d E =-.129523E-10
       N       E                     dE             d eps       ncg     rms          rms(c)
DAV:   1    -0.102337608787E+03    0.23764E-02   -0.16510E-01    96   0.128E+00    0.193E-01
DAV:   2    -0.102338855872E+03   -0.12471E-02   -0.12941E-02   132   0.395E-01    0.114E-01
DAV:   3    -0.102338801651E+03    0.54221E-04   -0.36814E-04   144   0.784E-02    0.651E-02
DAV:   4    -0.102338814308E+03   -0.12656E-04   -0.18766E-04   132   0.556E-02    0.130E-02
DAV:   5    -0.102338811207E+03    0.31008E-05   -0.49192E-05   144   0.263E-02    0.104E-02
DAV:   6    -0.102338808928E+03    0.22790E-05   -0.58725E-06   132   0.831E-03    0.710E-03
DAV:   7    -0.102338812074E+03   -0.31458E-05   -0.18127E-06   132   0.514E-03    0.270E-03
DAV:   8    -0.102338818306E+03   -0.62325E-05   -0.50222E-07   108   0.329E-03    0.779E-04
DAV:   9    -0.102338825851E+03   -0.75447E-05   -0.56067E-07   108   0.239E-03    0.103E-03
DAV:  10    -0.102338836217E+03   -0.10367E-04   -0.53072E-07   108   0.190E-03    0.319E-04
DAV:  11    -0.102338838994E+03   -0.27767E-05   -0.12137E-07   108   0.957E-04    0.269E-04
DAV:  12    -0.102338842440E+03   -0.34457E-05   -0.83995E-08   108   0.718E-04    0.139E-04
DAV:  13    -0.102338845121E+03   -0.26815E-05   -0.85310E-08   108   0.613E-04    0.118E-04
DAV:  14    -0.102338846487E+03   -0.13660E-05   -0.22021E-08   108   0.341E-04    0.754E-05
DAV:  15    -0.102338847215E+03   -0.72744E-06   -0.51795E-09   108   0.230E-04
  14 F= -.10233885E+03 E0= -.10233885E+03  d E =-.152650E-10
       N       E                     dE             d eps       ncg     rms          rms(c)
DAV:   1    -0.102336709365E+03    0.21371E-02   -0.34213E-01    96   0.179E+00    0.263E-01
DAV:   2    -0.102338891019E+03   -0.21817E-02   -0.22675E-02   132   0.541E-01    0.171E-01
DAV:   3    -0.102338784322E+03    0.10670E-03   -0.60765E-04   156   0.106E-01    0.867E-02
DAV:   4    -0.102338792209E+03   -0.78866E-05   -0.35548E-04   132   0.726E-02    0.174E-02
DAV:   5    -0.102338782654E+03    0.95545E-05   -0.68559E-05   132   0.310E-02    0.120E-02
DAV:   6    -0.102338787993E+03   -0.53386E-05   -0.17724E-05   132   0.124E-02    0.723E-03
DAV:   7    -0.102338807263E+03   -0.19271E-04   -0.23244E-06   132   0.542E-03    0.295E-03
DAV:   8    -0.102338831830E+03   -0.24566E-04   -0.21386E-06   132   0.400E-03    0.106E-03
DAV:   9    -0.102338854160E+03   -0.22330E-04   -0.21733E-06   132   0.357E-03    0.136E-03
DAV:  10    -0.102338876044E+03   -0.21885E-04   -0.21018E-06   120   0.320E-03    0.470E-04
DAV:  11    -0.102338881439E+03   -0.53947E-05   -0.19769E-07   108   0.119E-03    0.305E-04
DAV:  12    -0.102338887037E+03   -0.55975E-05   -0.21265E-07   108   0.985E-04    0.140E-04
DAV:  13    -0.102338889578E+03   -0.25411E-05   -0.98513E-08   108   0.626E-04    0.174E-04
DAV:  14    -0.102338891173E+03   -0.15954E-05   -0.26382E-08   108   0.402E-04    0.719E-05
DAV:  15    -0.102338891705E+03   -0.53190E-06   -0.30237E-09   120   0.216E-04
  15 F= -.10233889E+03 E0= -.10233889E+03  d E =-.885643E-11
       N       E                     dE             d eps       ncg     rms          rms(c)
DAV:   1    -0.102338192737E+03    0.69844E-03   -0.17177E-01    96   0.128E+00    0.184E-01
DAV:   2    -0.102339420578E+03   -0.12278E-02   -0.12620E-02   132   0.396E-01    0.129E-01
DAV:   3    -0.102339345502E+03    0.75077E-04   -0.32168E-04   144   0.791E-02    0.622E-02
DAV:   4    -0.102339351489E+03   -0.59876E-05   -0.22076E-04   120   0.559E-02    0.131E-02
DAV:   5    -0.102339342935E+03    0.85544E-05   -0.37275E-05   132   0.231E-02    0.866E-03
DAV:   6    -0.102339345161E+03   -0.22260E-05   -0.84765E-06   132   0.800E-03    0.418E-03
DAV:   7    -0.102339355335E+03   -0.10174E-04   -0.56843E-07   108   0.259E-03    0.203E-03
DAV:   8    -0.102339372400E+03   -0.17065E-04   -0.23460E-06   132   0.408E-03    0.123E-03
DAV:   9    -0.102339385393E+03   -0.12993E-04   -0.84371E-07   120   0.248E-03    0.823E-04
DAV:  10    -0.102339395777E+03   -0.10384E-04   -0.81732E-07    96   0.186E-03    0.320E-04
DAV:  11    -0.102339400085E+03   -0.43082E-05   -0.15885E-07   108   0.880E-04    0.182E-04
DAV:  12    -0.102339403756E+03   -0.36710E-05   -0.12504E-07    96   0.731E-04    0.125E-04
DAV:  13    -0.102339404978E+03   -0.12217E-05   -0.24759E-08   108   0.366E-04    0.107E-04
DAV:  14    -0.102339406245E+03   -0.12672E-05   -0.19850E-08    96   0.327E-04    0.407E-05
DAV:  15    -0.102339406570E+03   -0.32532E-06    0.17299E-09   108   0.158E-04
  16 F= -.10233941E+03 E0= -.10233941E+03  d E =-.110503E-10
       N       E                     dE             d eps       ncg     rms          rms(c)
DAV:   1    -0.102337335715E+03    0.20705E-02   -0.33610E-01    96   0.181E+00    0.265E-01
DAV:   2    -0.102339290866E+03   -0.19552E-02   -0.20458E-02   132   0.501E-01    0.155E-01
DAV:   3    -0.102339198192E+03    0.92675E-04   -0.55931E-04   132   0.976E-02    0.796E-02
DAV:   4    -0.102339206286E+03   -0.80946E-05   -0.28666E-04   132   0.658E-02    0.167E-02
DAV:   5    -0.102339196095E+03    0.10191E-04   -0.58743E-05   132   0.289E-02    0.124E-02
DAV:   6    -0.102339194781E+03    0.13145E-05   -0.11788E-05   132   0.109E-02    0.754E-03
DAV:   7    -0.102339203115E+03   -0.83339E-05   -0.21380E-06   132   0.571E-03    0.290E-03
DAV:   8    -0.102339217217E+03   -0.14102E-04   -0.15220E-06   132   0.457E-03    0.125E-03
DAV:   9    -0.102339232388E+03   -0.15171E-04   -0.91394E-07   108   0.292E-03    0.127E-03
DAV:  10    -0.102339248275E+03   -0.15888E-04   -0.94342E-07   108   0.233E-03    0.631E-04
DAV:  11    -0.102339257980E+03   -0.97041E-05   -0.40850E-07   108   0.145E-03    0.259E-04
DAV:  12    -0.102339263411E+03   -0.54314E-05   -0.12504E-07   108   0.804E-04    0.252E-04
DAV:  13    -0.102339266400E+03   -0.29891E-05   -0.45427E-08   108   0.497E-04    0.138E-04
DAV:  14    -0.102339268485E+03   -0.20846E-05   -0.33553E-08   108   0.412E-04    0.537E-05
DAV:  15    -0.102339269029E+03   -0.54421E-06   -0.26702E-10   108   0.194E-04
  17 F= -.10233927E+03 E0= -.10233927E+03  d E =-.118555E-10
       N       E                     dE             d eps       ncg     rms          rms(c)
DAV:   1    -0.102338624194E+03    0.64429E-03   -0.17176E-01    96   0.130E+00    0.185E-01
DAV:   2    -0.102339612133E+03   -0.98794E-03   -0.10356E-02   120   0.362E-01    0.115E-01
DAV:   3    -0.102339563227E+03    0.48905E-04   -0.26656E-04   132   0.670E-02    0.610E-02
DAV:   4    -0.102339549045E+03    0.14182E-04   -0.12919E-04   132   0.429E-02    0.108E-02
DAV:   5    -0.102339545088E+03    0.39572E-05   -0.19886E-05   132   0.172E-02    0.796E-03
DAV:   6    -0.102339549591E+03   -0.45027E-05   -0.60020E-06   132   0.867E-03    0.446E-03
DAV:   7    -0.102339565841E+03   -0.16250E-04   -0.25225E-06   120   0.588E-03    0.155E-03
DAV:   8    -0.102339582571E+03   -0.16730E-04   -0.11973E-06   120   0.371E-03    0.102E-03
DAV:   9    -0.102339599764E+03   -0.17193E-04   -0.14866E-06   132   0.298E-03    0.907E-04
DAV:  10    -0.102339612769E+03   -0.13005E-04   -0.11019E-06   120   0.209E-03    0.369E-04
DAV:  11    -0.102339615792E+03   -0.30233E-05   -0.86107E-08   120   0.774E-04    0.253E-04
DAV:  12    -0.102339621202E+03   -0.54099E-05   -0.36982E-07    96   0.118E-03    0.145E-04
DAV:  13    -0.102339621997E+03   -0.79522E-06   -0.34992E-08   120   0.440E-04
  18 F= -.10233962E+03 E0= -.10233962E+03  d E =-.132085E-10
       N       E                     dE             d eps       ncg     rms          rms(c)
DAV:   1    -0.102337801487E+03    0.18197E-02   -0.33401E-01    96   0.180E+00    0.270E-01
DAV:   2    -0.102339611379E+03   -0.18099E-02   -0.19013E-02   132   0.478E-01    0.143E-01
DAV:   3    -0.102339541126E+03    0.70254E-04   -0.54826E-04   132   0.915E-02    0.760E-02
DAV:   4    -0.102339537194E+03    0.39319E-05   -0.19592E-04   132   0.555E-02    0.155E-02
DAV:   5    -0.102339528231E+03    0.89625E-05   -0.41106E-05   132   0.247E-02    0.109E-02
DAV:   6    -0.102339528326E+03   -0.94912E-07   -0.70576E-06   132   0.955E-03
  19 F= -.10233953E+03 E0= -.10233953E+03  d E =-.105116E-10
       N       E                     dE             d eps       ncg     rms          rms(c)
DAV:   1    -0.102337775469E+03    0.17528E-02   -0.16516E-01    96   0.130E+00    0.175E-01
DAV:   2    -0.102339087711E+03   -0.13122E-02   -0.13358E-02   132   0.408E-01    0.112E-01
DAV:   3    -0.102339049015E+03    0.38696E-04   -0.33270E-04   132   0.748E-02    0.650E-02
DAV:   4    -0.102339066799E+03   -0.17784E-04   -0.16043E-04   132   0.518E-02    0.111E-02
DAV:   5    -0.102339067689E+03   -0.89038E-06   -0.41712E-05   144   0.241E-02    0.928E-03
DAV:   6    -0.102339069334E+03   -0.16449E-05   -0.44961E-06   132   0.752E-03    0.651E-03
DAV:   7    -0.102339076821E+03   -0.74872E-05   -0.15869E-06   120   0.521E-03    0.211E-03
DAV:   8    -0.102339083041E+03   -0.62198E-05   -0.76157E-07   108   0.374E-03    0.865E-04
DAV:   9    -0.102339089217E+03   -0.61761E-05   -0.49918E-07   108   0.229E-03    0.908E-04
DAV:  10    -0.102339098046E+03   -0.88288E-05   -0.66381E-07   108   0.193E-03    0.338E-04
DAV:  11    -0.102339099616E+03   -0.15704E-05   -0.89552E-08   108   0.858E-04    0.291E-04
DAV:  12    -0.102339102066E+03   -0.24497E-05   -0.75241E-08   108   0.689E-04    0.205E-04
DAV:  13    -0.102339104481E+03   -0.24152E-05   -0.11817E-07   108   0.680E-04    0.104E-04
DAV:  14    -0.102339105507E+03   -0.10258E-05   -0.27249E-08   108   0.364E-04    0.816E-05
DAV:  15    -0.102339106074E+03   -0.56646E-06   -0.60273E-09   108   0.240E-04
  20 F= -.10233911E+03 E0= -.10233911E+03  d E =-.159522E-10
       N       E                     dE             d eps       ncg     rms          rms(c)
DAV:   1    -0.102336956292E+03    0.21492E-02   -0.33533E-01    96   0.177E+00    0.245E-01
DAV:   2    -0.102339324332E+03   -0.23680E-02   -0.25113E-02   132   0.526E-01    0.161E-01
DAV:   3    -0.102339169577E+03    0.15475E-03   -0.63661E-04   132   0.104E-01    0.860E-02
DAV:   4    -0.102339163386E+03    0.61909E-05   -0.38043E-04   132   0.734E-02    0.164E-02
DAV:   5    -0.102339156404E+03    0.69816E-05   -0.78539E-05   132   0.324E-02    0.124E-02
DAV:   6    -0.102339155831E+03    0.57304E-06   -0.11300E-05   132   0.100E-02    0.846E-03
DAV:   7    -0.102339165553E+03   -0.97221E-05   -0.13444E-06   120   0.417E-03    0.357E-03
DAV:   8    -0.102339183400E+03   -0.17847E-04   -0.18548E-06   132   0.490E-03    0.122E-03
DAV:   9    -0.102339197198E+03   -0.13798E-04   -0.10504E-06   120   0.270E-03    0.156E-03
DAV:  10    -0.102339217275E+03   -0.20077E-04   -0.10294E-06   120   0.223E-03    0.561E-04
DAV:  11    -0.102339223208E+03   -0.59328E-05   -0.18085E-07   108   0.106E-03    0.427E-04
DAV:  12    -0.102339231708E+03   -0.84994E-05   -0.27131E-07   108   0.108E-03    0.200E-04
DAV:  13    -0.102339234305E+03   -0.25978E-05   -0.59132E-08   108   0.518E-04    0.187E-04
DAV:  14    -0.102339236528E+03   -0.22230E-05   -0.22524E-08   108   0.390E-04    0.986E-05
DAV:  15    -0.102339237675E+03   -0.11462E-05   -0.12647E-08   108   0.276E-04    0.686E-05
DAV:  16    -0.102339238449E+03   -0.77460E-06   -0.70361E-10   108   0.206E-04
  21 F= -.10233924E+03 E0= -.10233924E+03  d E =-.908737E-11
       N       E                     dE             d eps       ncg     rms          rms(c)
DAV:   1    -0.102339462780E+03   -0.22510E-03   -0.16888E-01    96   0.123E+00    0.160E-01
DAV:   2    -0.102340547027E+03   -0.10842E-02   -0.11428E-02   120   0.360E-01    0.106E-01
DAV:   3    -0.102340493524E+03    0.53503E-04   -0.31634E-04   132   0.720E-02    0.602E-02
DAV:   4    -0.102340490081E+03    0.34433E-05   -0.14147E-04   132   0.456E-02    0.122E-02
DAV:   5    -0.102340486755E+03    0.33261E-05   -0.28851E-05   132   0.195E-02    0.857E-03
DAV:   6    -0.102340487336E+03   -0.58130E-06   -0.38129E-06   132   0.659E-03
  22 F= -.10234049E+03 E0= -.10234049E+03  d E =-.847818E-11
       N       E                     dE             d eps       ncg     rms          rms(c)
DAV:   1    -0.102338652168E+03    0.18346E-02   -0.33317E-01    96   0.166E+00    0.195E-01
DAV:   2    -0.102340251570E+03   -0.15994E-02   -0.16632E-02   132   0.427E-01    0.105E-01
DAV:   3    -0.102340241313E+03    0.10257E-04   -0.49531E-04   144   0.861E-02    0.511E-02
DAV:   4    -0.102340266744E+03   -0.25432E-04   -0.12042E-04   132   0.424E-02    0.141E-02
DAV:   5    -0.102340264930E+03    0.18143E-05   -0.21056E-05   132   0.183E-02    0.752E-03
DAV:   6    -0.102340265885E+03   -0.95519E-06   -0.64879E-06   132   0.854E-03
  23 F= -.10234027E+03 E0= -.10234027E+03  d E =-.202850E-10
       N       E                     dE             d eps       ncg     rms          rms(c)
DAV:   1    -0.102339347762E+03    0.91717E-03   -0.16792E-01    96   0.122E+00    0.148E-01
DAV:   2    -0.102340109024E+03   -0.76126E-03   -0.80302E-03   108   0.296E-01    0.752E-02
DAV:   3    -0.102340106441E+03    0.25832E-05   -0.27268E-04   132   0.625E-02    0.385E-02
DAV:   4    -0.102340121408E+03   -0.14967E-04   -0.64591E-05   132   0.308E-02    0.102E-02
DAV:   5    -0.102340121175E+03    0.23305E-06   -0.12600E-05   144   0.137E-02    0.582E-03
DAV:   6    -0.102340121701E+03   -0.52650E-06   -0.28337E-06   132   0.572E-03
  24 F= -.10234012E+03 E0= -.10234012E+03  d E =-.943001E-11
       N       E                     dE             d eps       ncg     rms          rms(c)
DAV:   1    -0.102338415635E+03    0.17055E-02   -0.34157E-01    96   0.169E+00    0.260E-01
DAV:   2    -0.102339922533E+03   -0.15069E-02   -0.16456E-02   132   0.453E-01    0.122E-01
DAV:   3    -0.102339869239E+03    0.53293E-04   -0.51964E-04   132   0.892E-02    0.681E-02
DAV:   4    -0.102339881660E+03   -0.12421E-04   -0.18166E-04   132   0.513E-02    0.181E-02
DAV:   5    -0.102339876871E+03    0.47888E-05   -0.33551E-05   144   0.221E-02    0.975E-03
DAV:   6    -0.102339876468E+03    0.40339E-06   -0.52853E-06   132   0.789E-03
  25 F= -.10233988E+03 E0= -.10233988E+03  d E =-.170994E-10
       N       E                     dE             d eps       ncg     rms          rms(c)
DAV:   1    -0.102339101749E+03    0.77512E-03   -0.16730E-01    96   0.124E+00    0.172E-01
DAV:   2    -0.102340194286E+03   -0.10925E-02   -0.11620E-02   132   0.361E-01    0.920E-02
DAV:   3    -0.102340152373E+03    0.41913E-04   -0.36027E-04   144   0.737E-02    0.500E-02
DAV:   4    -0.102340163633E+03   -0.11260E-04   -0.12076E-04   132   0.415E-02    0.125E-02
DAV:   5    -0.102340163337E+03    0.29596E-06   -0.23029E-05   132   0.183E-02    0.794E-03
DAV:   6    -0.102340163446E+03   -0.10872E-06   -0.35529E-06   144   0.664E-03
  26 F= -.10234016E+03 E0= -.10234016E+03  d E =-.946614E-11
       N       E                     dE             d eps       ncg     rms          rms(c)
DAV:   1    -0.102337950140E+03    0.22132E-02   -0.33674E-01    96   0.171E+00    0.224E-01
DAV:   2    -0.102339776467E+03   -0.18263E-02   -0.19388E-02   120   0.471E-01    0.133E-01
DAV:   3    -0.102339713640E+03    0.62826E-04   -0.59753E-04   144   0.970E-02    0.740E-02
DAV:   4    -0.102339725390E+03   -0.11750E-04   -0.22555E-04   132   0.577E-02    0.169E-02
DAV:   5    -0.102339719351E+03    0.60389E-05   -0.45450E-05   132   0.252E-02    0.110E-02
DAV:   6    -0.102339718650E+03    0.70131E-06   -0.73252E-06   144   0.897E-03
  27 F= -.10233972E+03 E0= -.10233972E+03  d E =-.137979E-10
       N       E                     dE             d eps       ncg     rms          rms(c)
DAV:   1    -0.102338521048E+03    0.11983E-02   -0.16906E-01    96   0.116E+00    0.174E-01
DAV:   2    -0.102339265742E+03   -0.74469E-03   -0.81245E-03   120   0.304E-01    0.792E-02
DAV:   3    -0.102339249615E+03    0.16127E-04   -0.29562E-04   144   0.642E-02    0.420E-02
DAV:   4    -0.102339262773E+03   -0.13159E-04   -0.70935E-05   132   0.310E-02    0.114E-02
DAV:   5    -0.102339264151E+03   -0.13779E-05   -0.13621E-05   132   0.140E-02    0.671E-03
DAV:   6    -0.102339265977E+03   -0.18256E-05   -0.27166E-06   132   0.563E-03    0.402E-03
DAV:   7    -0.102339269653E+03   -0.36766E-05   -0.35704E-07   108   0.220E-03    0.146E-03
DAV:   8    -0.102339273444E+03   -0.37905E-05   -0.28695E-07   108   0.189E-03    0.541E-04
DAV:   9    -0.102339277319E+03   -0.38752E-05   -0.19539E-07   108   0.151E-03    0.362E-04
DAV:  10    -0.102339281281E+03   -0.39621E-05   -0.27559E-07   108   0.141E-03    0.277E-04
DAV:  11    -0.102339282263E+03   -0.98211E-06   -0.46714E-08   108   0.751E-04
  28 F= -.10233928E+03 E0= -.10233928E+03  d E =-.109344E-10
       N       E                     dE             d eps       ncg     rms          rms(c)
DAV:   1    -0.102337252591E+03    0.20287E-02   -0.33674E-01    96   0.173E+00    0.265E-01
DAV:   2    -0.102339422851E+03   -0.21703E-02   -0.23395E-02   132   0.513E-01    0.158E-01
DAV:   3    -0.102339262671E+03    0.16018E-03   -0.62785E-04   132   0.103E-01    0.842E-02
DAV:   4    -0.102339262999E+03   -0.32810E-06   -0.37544E-04   132   0.702E-02    0.176E-02
DAV:   5    -0.102339255404E+03    0.75951E-05   -0.65850E-05   132   0.298E-02    0.125E-02
DAV:   6    -0.102339255343E+03    0.61591E-07   -0.95527E-06   132   0.929E-03
  29 F= -.10233926E+03 E0= -.10233926E+03  d E =-.133936E-10
       N       E                     dE             d eps       ncg     rms          rms(c)
DAV:   1    -0.102339567647E+03   -0.31224E-03   -0.16789E-01    96   0.122E+00    0.190E-01
DAV:   2    -0.102340427472E+03   -0.85982E-03   -0.93323E-03   132   0.333E-01    0.949E-02
DAV:   3    -0.102340395804E+03    0.31668E-04   -0.30795E-04   132   0.696E-02    0.511E-02
DAV:   4    -0.102340422399E+03   -0.26595E-04   -0.11509E-04   132   0.403E-02    0.124E-02
DAV:   5    -0.102340426325E+03   -0.39257E-05   -0.19723E-05   132   0.169E-02    0.804E-03
DAV:   6    -0.102340427882E+03   -0.15568E-05   -0.30527E-06   132   0.599E-03    0.531E-03
DAV:   7    -0.102340430577E+03   -0.26953E-05   -0.38033E-07   108   0.252E-03    0.204E-03
DAV:   8    -0.102340432714E+03   -0.21370E-05   -0.26033E-07   108   0.220E-03    0.605E-04
DAV:   9    -0.102340434633E+03   -0.19193E-05   -0.18105E-07   108   0.159E-03    0.525E-04
DAV:  10    -0.102340437174E+03   -0.25402E-05   -0.13914E-07   108   0.131E-03    0.445E-04
DAV:  11    -0.102340437800E+03   -0.62621E-06   -0.44980E-08   108   0.732E-04
  30 F= -.10234044E+03 E0= -.10234044E+03  d E =-.122095E-10
       N       E                     dE             d eps       ncg     rms          rms(c)
DAV:   1    -0.102338793748E+03    0.16434E-02   -0.33581E-01    96   0.170E+00    0.269E-01
DAV:   2    -0.102340131077E+03   -0.13373E-02   -0.15220E-02   132   0.424E-01    0.110E-01
DAV:   3    -0.102340085086E+03    0.45992E-04   -0.54745E-04   132   0.876E-02    0.613E-02
DAV:   4    -0.102340098003E+03   -0.12918E-04   -0.12783E-04   132   0.428E-02    0.187E-02
DAV:   5    -0.102340095937E+03    0.20664E-05   -0.25076E-05   132   0.201E-02    0.958E-03
DAV:   6    -0.102340096751E+03   -0.81378E-06   -0.54147E-06   132   0.809E-03
  31 F= -.10234010E+03 E0= -.10234010E+03  d E =-.105227E-10
       N       E                     dE             d eps       ncg     rms          rms(c)
DAV:   1    -0.102337837990E+03    0.22579E-02   -0.15601E-01    96   0.126E+00    0.175E-01
DAV:   2    -0.102338909773E+03   -0.10718E-02   -0.11290E-02   132   0.372E-01    0.102E-01
DAV:   3    -0.102338874526E+03    0.35247E-04   -0.29789E-04   144   0.684E-02    0.572E-02
DAV:   4    -0.102338873262E+03    0.12640E-05   -0.11514E-04   132   0.413E-02    0.107E-02
DAV:   5    -0.102338868916E+03    0.43461E-05   -0.20898E-05   144   0.175E-02    0.795E-03
DAV:   6    -0.102338868009E+03    0.90633E-06   -0.36694E-06   132   0.713E-03
  32 F= -.10233887E+03 E0= -.10233887E+03  d E =-.115184E-10
       N       E                     dE             d eps       ncg     rms          rms(c)
DAV:   1    -0.102336874853E+03    0.19941E-02   -0.34737E-01    96   0.181E+00    0.237E-01
DAV:   2    -0.102339085552E+03   -0.22107E-02   -0.22183E-02   132   0.527E-01    0.164E-01
DAV:   3    -0.102339029514E+03    0.56038E-04   -0.48533E-04   132   0.906E-02    0.883E-02
DAV:   4    -0.102339010233E+03    0.19281E-04   -0.28074E-04   132   0.607E-02    0.150E-02
DAV:   5    -0.102338997838E+03    0.12394E-04   -0.43929E-05   132   0.244E-02    0.108E-02
DAV:   6    -0.102338998893E+03   -0.10541E-05   -0.14073E-05   132   0.120E-02    0.630E-03
DAV:   7    -0.102339018148E+03   -0.19255E-04   -0.40895E-06   120   0.706E-03    0.232E-03
DAV:   8    -0.102339040335E+03   -0.22188E-04   -0.21003E-06   108   0.470E-03    0.121E-03
DAV:   9    -0.102339063140E+03   -0.22805E-04   -0.24334E-06   108   0.389E-03    0.125E-03
DAV:  10    -0.102339082054E+03   -0.18914E-04   -0.18000E-06   120   0.288E-03    0.481E-04
DAV:  11    -0.102339088236E+03   -0.61812E-05   -0.24968E-07   108   0.119E-03    0.256E-04
DAV:  12    -0.102339093550E+03   -0.53145E-05   -0.31422E-07   108   0.111E-03    0.188E-04
DAV:  13    -0.102339095161E+03   -0.16108E-05   -0.41599E-08   120   0.494E-04    0.945E-05
DAV:  14    -0.102339096059E+03   -0.89792E-06   -0.14572E-08   108   0.335E-04
  33 F= -.10233910E+03 E0= -.10233910E+03  d E =-.126270E-10
       N       E                     dE             d eps       ncg     rms          rms(c)
DAV:   1    -0.102339332012E+03   -0.23685E-03   -0.17212E-01    96   0.125E+00    0.183E-01
DAV:   2    -0.102340296905E+03   -0.96489E-03   -0.99696E-03   120   0.347E-01    0.104E-01
DAV:   3    -0.102340263061E+03    0.33844E-04   -0.27197E-04   144   0.665E-02    0.548E-02
DAV:   4    -0.102340262864E+03    0.19690E-06   -0.12558E-04   132   0.434E-02    0.109E-02
DAV:   5    -0.102340258368E+03    0.44958E-05   -0.28311E-05   132   0.198E-02    0.806E-03
DAV:   6    -0.102340258050E+03    0.31866E-06   -0.52935E-06   132   0.725E-03
  34 F= -.10234026E+03 E0= -.10234026E+03  d E =-.781292E-11
       N       E                     dE             d eps       ncg     rms          rms(c)
DAV:   1    -0.102338643781E+03    0.16146E-02   -0.34139E-01    96   0.165E+00    0.237E-01
DAV:   2    -0.102340174816E+03   -0.15310E-02   -0.15649E-02   132   0.423E-01    0.117E-01
DAV:   3    -0.102340174578E+03    0.23861E-06   -0.46995E-04   132   0.842E-02    0.627E-02
DAV:   4    -0.102340204827E+03   -0.30249E-04   -0.14373E-04   132   0.507E-02    0.143E-02
DAV:   5    -0.102340204984E+03   -0.15773E-06   -0.41560E-05   132   0.243E-02    0.992E-03
DAV:   6    -0.102340206171E+03   -0.11871E-05   -0.56273E-06   132   0.763E-03    0.652E-03
DAV:   7    -0.102340209970E+03   -0.37982E-05   -0.68659E-07   108   0.333E-03    0.267E-03
DAV:   8    -0.102340214608E+03   -0.46384E-05   -0.79271E-07   108   0.353E-03    0.107E-03
DAV:   9    -0.102340221922E+03   -0.73145E-05   -0.50622E-07   108   0.305E-03    0.654E-04
DAV:  10    -0.102340227272E+03   -0.53500E-05   -0.41002E-07   108   0.226E-03    0.761E-04
DAV:  11    -0.102340229484E+03   -0.22114E-05   -0.11480E-07   108   0.127E-03    0.555E-04
DAV:  12    -0.102340231905E+03   -0.24211E-05   -0.54901E-08   108   0.669E-04    0.213E-04
DAV:  13    -0.102340234180E+03   -0.22752E-05   -0.60848E-08   108   0.547E-04    0.167E-04
DAV:  14    -0.102340235501E+03   -0.13208E-05   -0.23459E-08   108   0.342E-04    0.151E-04
DAV:  15    -0.102340236451E+03   -0.94970E-06   -0.15392E-08   108   0.319E-04
  35 F= -.10234024E+03 E0= -.10234024E+03  d E =-.178199E-10
       N       E                     dE             d eps       ncg     rms          rms(c)
DAV:   1    -0.102337640099E+03    0.25954E-02   -0.17306E-01    96   0.124E+00    0.176E-01
DAV:   2    -0.102338531347E+03   -0.89125E-03   -0.92239E-03   132   0.334E-01    0.970E-02
DAV:   3    -0.102338501926E+03    0.29421E-04   -0.25309E-04   132   0.641E-02    0.500E-02
DAV:   4    -0.102338510322E+03   -0.83952E-05   -0.11912E-04   132   0.429E-02    0.111E-02
DAV:   5    -0.102338506567E+03    0.37548E-05   -0.27055E-05   132   0.194E-02    0.750E-03
DAV:   6    -0.102338506518E+03    0.48830E-07   -0.44853E-06   132   0.666E-03
  36 F= -.10233851E+03 E0= -.10233851E+03  d E =-.100941E-10
       N       E                     dE             d eps       ncg     rms          rms(c)
DAV:   1    -0.102336354433E+03    0.21521E-02   -0.35552E-01    96   0.179E+00    0.260E-01
DAV:   2    -0.102338768417E+03   -0.24140E-02   -0.24434E-02   132   0.552E-01    0.176E-01
DAV:   3    -0.102338666798E+03    0.10162E-03   -0.59677E-04   144   0.103E-01    0.896E-02
DAV:   4    -0.102338675487E+03   -0.86889E-05   -0.37033E-04   132   0.714E-02    0.167E-02
DAV:   5    -0.102338660324E+03    0.15163E-04   -0.73534E-05   132   0.309E-02    0.111E-02
DAV:   6    -0.102338664773E+03   -0.44494E-05   -0.13612E-05   132   0.101E-02    0.655E-03
DAV:   7    -0.102338684928E+03   -0.20155E-04   -0.15400E-06   120   0.403E-03    0.273E-03
DAV:   8    -0.102338706540E+03   -0.21612E-04   -0.26759E-06   120   0.481E-03    0.124E-03
DAV:   9    -0.102338725994E+03   -0.19454E-04   -0.20512E-06   120   0.353E-03    0.131E-03
DAV:  10    -0.102338742606E+03   -0.16612E-04   -0.14477E-06   120   0.274E-03    0.532E-04
DAV:  11    -0.102338746540E+03   -0.39332E-05   -0.14018E-07   108   0.108E-03    0.335E-04
DAV:  12    -0.102338752634E+03   -0.60945E-05   -0.31359E-07    96   0.116E-03    0.174E-04
DAV:  13    -0.102338754161E+03   -0.15272E-05   -0.58098E-08   108   0.530E-04    0.224E-04
DAV:  14    -0.102338755843E+03   -0.16820E-05   -0.36929E-08    96   0.460E-04    0.878E-05
DAV:  15    -0.102338756320E+03   -0.47724E-06   -0.62237E-09   120   0.257E-04
  37 F= -.10233876E+03 E0= -.10233876E+03  d E =-.173562E-10
       N       E                     dE             d eps       ncg     rms          rms(c)
DAV:   1    -0.102337763921E+03    0.99192E-03   -0.18609E-01    96   0.135E+00    0.170E-01
DAV:   2    -0.102339055550E+03   -0.12916E-02   -0.14017E-02   132   0.415E-01    0.113E-01
DAV:   3    -0.102338994573E+03    0.60977E-04   -0.26111E-04   132   0.662E-02    0.651E-02
DAV:   4    -0.102338984328E+03    0.10245E-04   -0.17261E-04   132   0.516E-02    0.108E-02
DAV:   5    -0.102338978527E+03    0.58010E-05   -0.42230E-05   132   0.240E-02    0.759E-03
DAV:   6    -0.102338976711E+03    0.18158E-05   -0.76193E-06   132   0.885E-03    0.510E-03
DAV:   7    -0.102338983884E+03   -0.71733E-05   -0.15986E-06   120   0.464E-03    0.212E-03
DAV:   8    -0.102338996116E+03   -0.12232E-04   -0.97796E-07   108   0.332E-03    0.768E-04
DAV:   9    -0.102339007881E+03   -0.11765E-04   -0.97144E-07   108   0.258E-03    0.110E-03
DAV:  10    -0.102339020473E+03   -0.12592E-04   -0.61110E-07   108   0.200E-03    0.290E-04
DAV:  11    -0.102339024351E+03   -0.38789E-05   -0.12204E-07   108   0.907E-04    0.206E-04
DAV:  12    -0.102339028850E+03   -0.44988E-05   -0.93608E-08   108   0.693E-04    0.117E-04
DAV:  13    -0.102339030824E+03   -0.19735E-05   -0.40098E-08   108   0.436E-04    0.113E-04
DAV:  14    -0.102339032434E+03   -0.16097E-05   -0.17794E-08   108   0.318E-04    0.431E-05
DAV:  15    -0.102339032945E+03   -0.51133E-06    0.30859E-10   108   0.178E-04
  38 F= -.10233903E+03 E0= -.10233903E+03  d E =-.846062E-11
       N       E                     dE             d eps       ncg     rms          rms(c)
DAV:   1    -0.102337808636E+03    0.12238E-02   -0.40462E-01   108   0.182E+00    0.214E-01
DAV:   2    -0.102339285096E+03   -0.14765E-02   -0.18265E-02   132   0.438E-01    0.126E-01
DAV:   3    -0.102339171083E+03    0.11401E-03   -0.29305E-04   132   0.605E-02    0.656E-02
DAV:   4    -0.102339112431E+03    0.58653E-04   -0.12613E-04   132   0.429E-02    0.111E-02
DAV:   5    -0.102339107922E+03    0.45088E-05   -0.27702E-05   132   0.196E-02    0.742E-03
DAV:   6    -0.102339120922E+03   -0.13000E-04   -0.10600E-05   132   0.909E-03    0.429E-03
DAV:   7    -0.102339144803E+03   -0.23881E-04   -0.14808E-06   120   0.381E-03    0.217E-03
DAV:   8    -0.102339183276E+03   -0.38473E-04   -0.43381E-06   120   0.467E-03    0.129E-03
DAV:   9    -0.102339204905E+03   -0.21630E-04   -0.15490E-06   120   0.292E-03    0.923E-04
DAV:  10    -0.102339226036E+03   -0.21131E-04   -0.17531E-06   120   0.269E-03    0.359E-04
DAV:  11    -0.102339233316E+03   -0.72801E-05   -0.25010E-07   108   0.122E-03    0.339E-04
DAV:  12    -0.102339240354E+03   -0.70378E-05   -0.34743E-07   108   0.120E-03    0.164E-04
DAV:  13    -0.102339241788E+03   -0.14346E-05   -0.45966E-08   108   0.497E-04    0.126E-04
DAV:  14    -0.102339243263E+03   -0.14745E-05   -0.17029E-08   108   0.376E-04    0.507E-05
DAV:  15    -0.102339243879E+03   -0.61606E-06   -0.52162E-09   108   0.243E-04
  39 F= -.10233924E+03 E0= -.10233924E+03  d E =-.201465E-10
       N       E                     dE             d eps       ncg     rms          rms(c)
DAV:   1    -0.102338698964E+03    0.54430E-03   -0.20222E-01    96   0.133E+00    0.151E-01
DAV:   2    -0.102339430454E+03   -0.73149E-03   -0.89861E-03   132   0.303E-01    0.776E-02
DAV:   3    -0.102339388369E+03    0.42086E-04   -0.14945E-04   132   0.423E-02    0.409E-02
DAV:   4    -0.102339359826E+03    0.28543E-04   -0.43617E-05   132   0.262E-02    0.795E-03
DAV:   5    -0.102339353238E+03    0.65876E-05   -0.10175E-05   132   0.127E-02    0.475E-03
DAV:   6    -0.102339354462E+03   -0.12235E-05   -0.34471E-06   132   0.639E-03    0.266E-03
DAV:   7    -0.102339361773E+03   -0.73117E-05   -0.81551E-07   108   0.385E-03    0.130E-03
DAV:   8    -0.102339374091E+03   -0.12318E-04   -0.10648E-06   120   0.331E-03    0.913E-04
DAV:   9    -0.102339387030E+03   -0.12939E-04   -0.74489E-07   108   0.242E-03    0.523E-04
DAV:  10    -0.102339394935E+03   -0.79051E-05   -0.36759E-07   108   0.142E-03    0.316E-04
DAV:  11    -0.102339401342E+03   -0.64063E-05   -0.15934E-07   108   0.875E-04    0.180E-04
DAV:  12    -0.102339404777E+03   -0.34358E-05   -0.68491E-08   108   0.564E-04    0.114E-04
DAV:  13    -0.102339407253E+03   -0.24753E-05   -0.45414E-08   108   0.430E-04    0.608E-05
DAV:  14    -0.102339408298E+03   -0.10452E-05   -0.59498E-09   108   0.241E-04    0.356E-05
DAV:  15    -0.102339408886E+03   -0.58853E-06   -0.17124E-09   108   0.180E-04
  40 F= -.10233941E+03 E0= -.10233941E+03  d E =-.180204E-10
       N       E                     dE             d eps       ncg     rms          rms(c)
DAV:   1    -0.102338044083E+03    0.13642E-02   -0.40246E-01    96   0.186E+00    0.218E-01
DAV:   2    -0.102339582517E+03   -0.15384E-02   -0.18994E-02   132   0.446E-01    0.117E-01
DAV:   3    -0.102339481032E+03    0.10149E-03   -0.29786E-04   132   0.605E-02    0.631E-02
DAV:   4    -0.102339406813E+03    0.74219E-04   -0.10068E-04   132   0.389E-02    0.117E-02
DAV:   5    -0.102339403140E+03    0.36726E-05   -0.19482E-05   132   0.180E-02    0.725E-03
DAV:   6    -0.102339420082E+03   -0.16942E-04   -0.86788E-06   132   0.981E-03    0.391E-03
DAV:   7    -0.102339448859E+03   -0.28776E-04   -0.34289E-06   120   0.637E-03    0.209E-03
DAV:   8    -0.102339485569E+03   -0.36711E-04   -0.33326E-06   120   0.485E-03    0.119E-03
DAV:   9    -0.102339511369E+03   -0.25800E-04   -0.24515E-06   120   0.368E-03    0.898E-04
DAV:  10    -0.102339530478E+03   -0.19109E-04   -0.15449E-06   120   0.262E-03    0.403E-04
DAV:  11    -0.102339538741E+03   -0.82630E-05   -0.37950E-07   108   0.136E-03    0.297E-04
DAV:  12    -0.102339544629E+03   -0.58878E-05   -0.31790E-07   108   0.110E-03    0.143E-04
DAV:  13    -0.102339546531E+03   -0.19026E-05   -0.63274E-08   108   0.540E-04    0.828E-05
DAV:  14    -0.102339547590E+03   -0.10583E-05   -0.11716E-08   108   0.320E-04    0.501E-05
DAV:  15    -0.102339547974E+03   -0.38466E-06   -0.21734E-10   108   0.179E-04
  41 F= -.10233955E+03 E0= -.10233955E+03  d E =-.849371E-11
       N       E                     dE             d eps       ncg     rms          rms(c)
DAV:   1    -0.102339752261E+03   -0.20467E-03   -0.20338E-01   108   0.131E+00    0.144E-01
DAV:   2    -0.102340463180E+03   -0.71092E-03   -0.85881E-03   132   0.290E-01    0.699E-02
DAV:   3    -0.102340436301E+03    0.26879E-04   -0.16792E-04   144   0.463E-02    0.367E-02
DAV:   4    -0.102340422795E+03    0.13506E-04   -0.39397E-05   132   0.298E-02    0.785E-03
DAV:   5    -0.102340419586E+03    0.32097E-05   -0.14831E-05   132   0.146E-02    0.585E-03
DAV:   6    -0.102340420251E+03   -0.66587E-06   -0.21472E-06   132   0.472E-03
  42 F= -.10234042E+03 E0= -.10234042E+03  d E =-.556395E-11
       N       E                     dE             d eps       ncg     rms          rms(c)
DAV:   1    -0.102338930787E+03    0.14888E-02   -0.40848E-01    96   0.178E+00    0.188E-01
DAV:   2    -0.102340271570E+03   -0.13408E-02   -0.16128E-02   120   0.372E-01    0.910E-02
DAV:   3    -0.102340241489E+03    0.30081E-04   -0.33127E-04   144   0.632E-02    0.482E-02
DAV:   4    -0.102340222537E+03    0.18952E-04   -0.73291E-05   132   0.399E-02    0.948E-03
DAV:   5    -0.102340220411E+03    0.21263E-05   -0.26888E-05   132   0.199E-02    0.792E-03
DAV:   6    -0.102340222662E+03   -0.22504E-05   -0.40014E-06   132   0.654E-03    0.553E-03
DAV:   7    -0.102340229972E+03   -0.73106E-05   -0.70238E-07   108   0.387E-03    0.209E-03
DAV:   8    -0.102340239949E+03   -0.99766E-05   -0.12283E-06   120   0.401E-03    0.139E-03
DAV:   9    -0.102340255928E+03   -0.15980E-04   -0.11573E-06   120   0.366E-03    0.793E-04
DAV:  10    -0.102340264211E+03   -0.82825E-05   -0.51166E-07   108   0.225E-03    0.879E-04
DAV:  11    -0.102340266969E+03   -0.27579E-05   -0.86869E-08   108   0.102E-03    0.614E-04
DAV:  12    -0.102340273469E+03   -0.64997E-05   -0.21977E-07   108   0.114E-03    0.254E-04
DAV:  13    -0.102340275522E+03   -0.20538E-05   -0.59753E-08   108   0.597E-04    0.364E-04
DAV:  14    -0.102340277368E+03   -0.18456E-05   -0.26141E-08   108   0.451E-04    0.855E-05
DAV:  15    -0.102340278452E+03   -0.10841E-05   -0.17910E-08   108   0.326E-04    0.795E-05
DAV:  16    -0.102340279061E+03   -0.60887E-06   -0.73262E-10   108   0.205E-04
  43 F= -.10234028E+03 E0= -.10234028E+03  d E =-.394629E-10
       N       E                     dE             d eps       ncg     rms          rms(c)
DAV:   1    -0.102339486782E+03    0.79167E-03   -0.19555E-01    96   0.124E+00    0.138E-01
DAV:   2    -0.102340296923E+03   -0.81014E-03   -0.98795E-03   120   0.284E-01    0.646E-02
DAV:   3    -0.102340274950E+03    0.21972E-04   -0.19332E-04   156   0.459E-02    0.363E-02
DAV:   4    -0.102340251516E+03    0.23434E-04   -0.32022E-05   132   0.252E-02    0.762E-03
DAV:   5    -0.102340247410E+03    0.41053E-05   -0.11380E-05   132   0.132E-02    0.530E-03
DAV:   6    -0.102340249453E+03   -0.20421E-05   -0.23832E-06   132   0.534E-03    0.374E-03
DAV:   7    -0.102340255965E+03   -0.65122E-05   -0.44666E-07   108   0.269E-03    0.156E-03
DAV:   8    -0.102340265482E+03   -0.95169E-05   -0.94308E-07   108   0.318E-03    0.105E-03
DAV:   9    -0.102340278737E+03   -0.13255E-04   -0.11898E-06   120   0.295E-03    0.645E-04
DAV:  10    -0.102340284792E+03   -0.60547E-05   -0.35629E-07   108   0.173E-03    0.685E-04
DAV:  11    -0.102340286804E+03   -0.20125E-05   -0.59387E-08   108   0.778E-04    0.410E-04
DAV:  12    -0.102340290988E+03   -0.41836E-05   -0.16374E-07   108   0.974E-04    0.253E-04
DAV:  13    -0.102340292078E+03   -0.10902E-05   -0.36601E-08   108   0.481E-04    0.263E-04
DAV:  14    -0.102340293021E+03   -0.94249E-06   -0.10814E-08   108   0.340E-04
  44 F= -.10234029E+03 E0= -.10234029E+03  d E =-.299302E-10
       N       E                     dE             d eps       ncg     rms          rms(c)
DAV:   1    -0.102339045661E+03    0.12464E-02   -0.40734E-01    96   0.169E+00    0.192E-01
DAV:   2    -0.102340418819E+03   -0.13732E-02   -0.16433E-02   120   0.365E-01    0.920E-02
DAV:   3    -0.102340355355E+03    0.63463E-04   -0.34281E-04   156   0.649E-02    0.485E-02
DAV:   4    -0.102340324505E+03    0.30850E-04   -0.80856E-05   132   0.386E-02    0.108E-02
DAV:   5    -0.102340320730E+03    0.37753E-05   -0.22982E-05   132   0.185E-02    0.735E-03
DAV:   6    -0.102340324411E+03   -0.36814E-05   -0.43539E-06   132   0.708E-03    0.456E-03
DAV:   7    -0.102340333694E+03   -0.92832E-05   -0.87668E-07   120   0.333E-03    0.182E-03
DAV:   8    -0.102340345349E+03   -0.11654E-04   -0.87735E-07   120   0.305E-03    0.100E-03
DAV:   9    -0.102340361123E+03   -0.15774E-04   -0.12802E-06   120   0.307E-03    0.638E-04
DAV:  10    -0.102340371223E+03   -0.10101E-04   -0.82226E-07   120   0.223E-03    0.562E-04
DAV:  11    -0.102340374600E+03   -0.33767E-05   -0.82853E-08   108   0.989E-04    0.289E-04
DAV:  12    -0.102340378363E+03   -0.37630E-05   -0.14536E-07   108   0.859E-04    0.231E-04
DAV:  13    -0.102340379823E+03   -0.14595E-05   -0.31752E-08   108   0.435E-04    0.163E-04
DAV:  14    -0.102340381109E+03   -0.12868E-05   -0.22339E-08   108   0.358E-04    0.494E-05
DAV:  15    -0.102340381627E+03   -0.51759E-06   -0.20237E-09   108   0.202E-04
  45 F= -.10234038E+03 E0= -.10234038E+03  d E =-.827283E-11
       N       E                     dE             d eps       ncg     rms          rms(c)
DAV:   1    -0.102338835070E+03    0.15460E-02   -0.19878E-01    96   0.117E+00    0.139E-01
DAV:   2    -0.102339604961E+03   -0.76989E-03   -0.95042E-03   120   0.275E-01    0.825E-02
DAV:   3    -0.102339546157E+03    0.58805E-04   -0.16099E-04   132   0.461E-02    0.421E-02
DAV:   4    -0.102339519119E+03    0.27038E-04   -0.62965E-05   132   0.303E-02    0.788E-03
DAV:   5    -0.102339513072E+03    0.60474E-05   -0.12695E-05   132   0.132E-02    0.509E-03
DAV:   6    -0.102339514492E+03   -0.14205E-05   -0.33557E-06   132   0.527E-03    0.274E-03
DAV:   7    -0.102339521880E+03   -0.73873E-05   -0.61928E-07   108   0.266E-03    0.123E-03
DAV:   8    -0.102339534261E+03   -0.12382E-04   -0.91800E-07   120   0.242E-03    0.851E-04
DAV:   9    -0.102339545469E+03   -0.11208E-04   -0.53878E-07   120   0.171E-03    0.550E-04
DAV:  10    -0.102339555096E+03   -0.96275E-05   -0.42069E-07   108   0.133E-03    0.273E-04
DAV:  11    -0.102339558394E+03   -0.32972E-05   -0.84063E-08   108   0.658E-04    0.203E-04
DAV:  12    -0.102339563131E+03   -0.47369E-05   -0.13823E-07    96   0.768E-04    0.913E-05
DAV:  13    -0.102339564374E+03   -0.12432E-05   -0.21730E-08   108   0.367E-04    0.717E-05
DAV:  14    -0.102339565604E+03   -0.12307E-05   -0.10294E-08   108   0.283E-04    0.324E-05
DAV:  15    -0.102339566011E+03   -0.40693E-06    0.15090E-09   108   0.161E-04
  46 F= -.10233957E+03 E0= -.10233957E+03  d E =-.848040E-11
       N       E                     dE             d eps       ncg     rms          rms(c)
DAV:   1    -0.102338490413E+03    0.10752E-02   -0.39911E-01    96   0.171E+00    0.222E-01
DAV:   2    -0.102339973770E+03   -0.14834E-02   -0.18173E-02   120   0.394E-01    0.110E-01
DAV:   3    -0.102339873875E+03    0.99895E-04   -0.33199E-04   144   0.662E-02    0.581E-02
DAV:   4    -0.102339826884E+03    0.46992E-04   -0.10998E-04   132   0.412E-02    0.118E-02
DAV:   5    -0.102339820509E+03    0.63747E-05   -0.24130E-05   132   0.184E-02    0.715E-03
DAV:   6    -0.102339827221E+03   -0.67122E-05   -0.54742E-06   132   0.711E-03    0.407E-03
DAV:   7    -0.102339845008E+03   -0.17787E-04   -0.17455E-06   132   0.394E-03    0.172E-03
DAV:   8    -0.102339865487E+03   -0.20479E-04   -0.16039E-06   120   0.305E-03    0.103E-03
DAV:   9    -0.102339883592E+03   -0.18105E-04   -0.13769E-06   120   0.255E-03    0.727E-04
DAV:  10    -0.102339899636E+03   -0.16043E-04   -0.15236E-06   120   0.234E-03    0.347E-04
DAV:  11    -0.102339903538E+03   -0.39019E-05   -0.98413E-08   108   0.898E-04    0.246E-04
DAV:  12    -0.102339908625E+03   -0.50871E-05   -0.22183E-07    96   0.960E-04    0.131E-04
DAV:  13    -0.102339910197E+03   -0.15727E-05   -0.46521E-08   108   0.464E-04    0.938E-05
DAV:  14    -0.102339911364E+03   -0.11668E-05   -0.11411E-08    96   0.299E-04    0.440E-05
DAV:  15    -0.102339911809E+03   -0.44483E-06   -0.35415E-10   108   0.176E-04
  47 F= -.10233991E+03 E0= -.10233991E+03  d E =-.195534E-10
       N       E                     dE             d eps       ncg     rms          rms(c)
DAV:   1    -0.102339720414E+03    0.19095E-03   -0.19818E-01    96   0.120E+00    0.145E-01
DAV:   2    -0.102340518163E+03   -0.79775E-03   -0.97528E-03   132   0.284E-01    0.819E-02
DAV:   3    -0.102340459241E+03    0.58922E-04   -0.15364E-04   132   0.454E-02    0.424E-02
DAV:   4    -0.102340432929E+03    0.26312E-04   -0.64043E-05   132   0.307E-02    0.824E-03
DAV:   5    -0.102340426644E+03    0.62848E-05   -0.13065E-05   132   0.136E-02    0.520E-03
DAV:   6    -0.102340427720E+03   -0.10758E-05   -0.31638E-06   132   0.531E-03    0.299E-03
DAV:   7    -0.102340434722E+03   -0.70019E-05   -0.65458E-07   108   0.282E-03    0.126E-03
DAV:   8    -0.102340445979E+03   -0.11257E-04   -0.82154E-07   120   0.241E-03    0.848E-04
DAV:   9    -0.102340458137E+03   -0.12158E-04   -0.63707E-07   120   0.186E-03    0.527E-04
DAV:  10    -0.102340467004E+03   -0.88675E-05   -0.38573E-07   108   0.132E-03    0.271E-04
DAV:  11    -0.102340470585E+03   -0.35811E-05   -0.85318E-08   108   0.696E-04    0.179E-04
DAV:  12    -0.102340475110E+03   -0.45247E-05   -0.13723E-07    96   0.749E-04    0.101E-04
DAV:  13    -0.102340476287E+03   -0.11764E-05   -0.17337E-08   108   0.337E-04    0.699E-05
DAV:  14    -0.102340477502E+03   -0.12155E-05   -0.12052E-08    96   0.274E-04    0.318E-05
DAV:  15    -0.102340477940E+03   -0.43775E-06    0.16227E-09   108   0.153E-04
  48 F= -.10234048E+03 E0= -.10234048E+03  d E =-.399043E-10
       N       E                     dE             d eps       ncg     rms          rms(c)
DAV:   1    -0.102338991792E+03    0.14857E-02   -0.40631E-01    96   0.165E+00    0.176E-01
DAV:   2    -0.102340372229E+03   -0.13804E-02   -0.16530E-02   120   0.363E-01    0.895E-02
DAV:   3    -0.102340318736E+03    0.53493E-04   -0.33142E-04   144   0.648E-02    0.461E-02
DAV:   4    -0.102340291863E+03    0.26874E-04   -0.72047E-05   132   0.385E-02    0.993E-03
DAV:   5    -0.102340287708E+03    0.41543E-05   -0.23737E-05   132   0.187E-02    0.684E-03
DAV:   6    -0.102340290893E+03   -0.31848E-05   -0.40630E-06   132   0.678E-03    0.422E-03
DAV:   7    -0.102340299843E+03   -0.89497E-05   -0.76521E-07   120   0.324E-03    0.162E-03
DAV:   8    -0.102340310346E+03   -0.10503E-04   -0.71745E-07   120   0.290E-03    0.971E-04
DAV:   9    -0.102340326652E+03   -0.16306E-04   -0.13493E-06   120   0.321E-03    0.504E-04
DAV:  10    -0.102340335417E+03   -0.87648E-05   -0.68955E-07   120   0.212E-03    0.479E-04
DAV:  11    -0.102340338185E+03   -0.27683E-05   -0.52987E-08   108   0.855E-04    0.281E-04
DAV:  12    -0.102340342323E+03   -0.41375E-05   -0.14768E-07   108   0.891E-04    0.203E-04
DAV:  13    -0.102340343952E+03   -0.16292E-05   -0.46179E-08   108   0.482E-04    0.145E-04
DAV:  14    -0.102340345183E+03   -0.12309E-05   -0.19127E-08   108   0.345E-04    0.427E-05
DAV:  15    -0.102340345677E+03   -0.49411E-06   -0.17578E-09   108   0.202E-04
  49 F= -.10234035E+03 E0= -.10234035E+03  d E =-.116415E-10
       N       E                     dE             d eps       ncg     rms          rms(c)
DAV:   1    -0.102339346981E+03    0.99820E-03   -0.20126E-01    96   0.130E+00    0.148E-01
DAV:   2    -0.102340342885E+03   -0.99590E-03   -0.11638E-02   132   0.308E-01    0.700E-02
DAV:   3    -0.102340319182E+03    0.23703E-04   -0.24193E-04   144   0.515E-02    0.389E-02
DAV:   4    -0.102340310154E+03    0.90282E-05   -0.51432E-05   132   0.293E-02    0.999E-03
DAV:   5    -0.102340307062E+03    0.30924E-05   -0.12166E-05   132   0.137E-02    0.579E-03
DAV:   6    -0.102340308055E+03   -0.99354E-06   -0.24456E-06   132   0.574E-03
  50 F= -.10234031E+03 E0= -.10234031E+03  d E =-.134871E-10
       N       E                     dE             d eps       ncg     rms          rms(c)
DAV:   1    -0.102338865590E+03    0.14415E-02   -0.41036E-01    96   0.180E+00    0.218E-01
DAV:   2    -0.102340271598E+03   -0.14060E-02   -0.16658E-02   132   0.389E-01    0.998E-02
DAV:   3    -0.102340220457E+03    0.51141E-04   -0.36869E-04   144   0.662E-02    0.523E-02
DAV:   4    -0.102340203987E+03    0.16470E-04   -0.85770E-05   132   0.413E-02    0.128E-02
DAV:   5    -0.102340199092E+03    0.48948E-05   -0.28896E-05   132   0.207E-02    0.835E-03
DAV:   6    -0.102340199348E+03   -0.25628E-06   -0.45816E-06   132   0.734E-03
  51 F= -.10234020E+03 E0= -.10234020E+03  d E =-.921125E-11
       N       E                     dE             d eps       ncg     rms          rms(c)
DAV:   1    -0.102338945624E+03    0.12535E-02   -0.20175E-01    96   0.131E+00    0.152E-01
DAV:   2    -0.102339725363E+03   -0.77974E-03   -0.92263E-03   120   0.299E-01    0.834E-02
DAV:   3    -0.102339695583E+03    0.29780E-04   -0.17142E-04   144   0.453E-02    0.430E-02
DAV:   4    -0.102339667761E+03    0.27822E-04   -0.48305E-05   132   0.255E-02    0.812E-03
DAV:   5    -0.102339660599E+03    0.71618E-05   -0.78030E-06   132   0.113E-02    0.451E-03
DAV:   6    -0.102339664442E+03   -0.38434E-05   -0.34971E-06   132   0.631E-03    0.243E-03
DAV:   7    -0.102339675224E+03   -0.10781E-04   -0.13286E-06   120   0.393E-03    0.122E-03
DAV:   8    -0.102339687852E+03   -0.12628E-04   -0.92202E-07   120   0.267E-03    0.705E-04
DAV:   9    -0.102339698509E+03   -0.10657E-04   -0.80152E-07   120   0.209E-03    0.505E-04
DAV:  10    -0.102339707699E+03   -0.91904E-05   -0.72054E-07   120   0.168E-03    0.246E-04
DAV:  11    -0.102339710526E+03   -0.28268E-05   -0.84315E-08   108   0.695E-04    0.176E-04
DAV:  12    -0.102339713662E+03   -0.31360E-05   -0.16910E-07   108   0.804E-04    0.977E-05
DAV:  13    -0.102339714270E+03   -0.60750E-06   -0.16319E-08   108   0.331E-04
  52 F= -.10233971E+03 E0= -.10233971E+03  d E =-.115068E-10
       N       E                     dE             d eps       ncg     rms          rms(c)
DAV:   1    -0.102338036442E+03    0.16772E-02   -0.40369E-01    96   0.184E+00    0.219E-01
DAV:   2    -0.102339521049E+03   -0.14846E-02   -0.18069E-02   132   0.423E-01    0.116E-01
DAV:   3    -0.102339422542E+03    0.98507E-04   -0.31942E-04   132   0.620E-02    0.600E-02
DAV:   4    -0.102339366604E+03    0.55938E-04   -0.96917E-05   132   0.372E-02    0.119E-02
DAV:   5    -0.102339353082E+03    0.13522E-04   -0.16413E-05   132   0.170E-02    0.694E-03
DAV:   6    -0.102339356539E+03   -0.34574E-05   -0.74674E-06   132   0.983E-03    0.365E-03
DAV:   7    -0.102339372115E+03   -0.15575E-04   -0.27008E-06   132   0.617E-03    0.196E-03
DAV:   8    -0.102339393439E+03   -0.21324E-04   -0.12433E-06   120   0.375E-03    0.117E-03
DAV:   9    -0.102339414684E+03   -0.21245E-04   -0.12781E-06   120   0.289E-03    0.794E-04
DAV:  10    -0.102339433707E+03   -0.19023E-04   -0.97088E-07   120   0.211E-03    0.375E-04
DAV:  11    -0.102339442367E+03   -0.86605E-05   -0.19082E-07   108   0.106E-03    0.259E-04
DAV:  12    -0.102339449862E+03   -0.74943E-05   -0.21119E-07   108   0.918E-04    0.149E-04
DAV:  13    -0.102339452114E+03   -0.22520E-05   -0.30465E-08   108   0.426E-04    0.840E-05
DAV:  14    -0.102339453682E+03   -0.15684E-05   -0.11551E-08   108   0.316E-04    0.503E-05
DAV:  15    -0.102339454274E+03   -0.59190E-06   -0.53696E-10   108   0.184E-04
  53 F= -.10233945E+03 E0= -.10233945E+03  d E =-.119269E-10
       N       E                     dE             d eps       ncg     rms          rms(c)
DAV:   1    -0.102338221510E+03    0.12322E-02   -0.20125E-01    96   0.130E+00    0.155E-01
DAV:   2    -0.102339029022E+03   -0.80751E-03   -0.98709E-03   132   0.320E-01    0.905E-02
DAV:   3    -0.102338970518E+03    0.58504E-04   -0.17742E-04   144   0.469E-02    0.467E-02
DAV:   4    -0.102338940258E+03    0.30259E-04   -0.58923E-05   132   0.301E-02    0.834E-03
DAV:   5    -0.102338934204E+03    0.60548E-05   -0.12258E-05   132   0.133E-02    0.528E-03
DAV:   6    -0.102338939639E+03   -0.54352E-05   -0.47771E-06   132   0.640E-03    0.308E-03
DAV:   7    -0.102338952304E+03   -0.12665E-04   -0.80152E-07   108   0.282E-03    0.147E-03
DAV:   8    -0.102338970904E+03   -0.18600E-04   -0.19370E-06   120   0.311E-03    0.968E-04
DAV:   9    -0.102338984268E+03   -0.13363E-04   -0.87439E-07   120   0.217E-03    0.693E-04
DAV:  10    -0.102338995987E+03   -0.11719E-04   -0.84799E-07   120   0.188E-03    0.259E-04
DAV:  11    -0.102338999520E+03   -0.35327E-05   -0.81326E-08   108   0.762E-04    0.236E-04
DAV:  12    -0.102339003868E+03   -0.43484E-05   -0.16679E-07    96   0.848E-04    0.113E-04
DAV:  13    -0.102339004781E+03   -0.91336E-06   -0.21092E-08   108   0.355E-04
  54 F= -.10233900E+03 E0= -.10233900E+03  d E =-.126599E-10
       N       E                     dE             d eps       ncg     rms          rms(c)
DAV:   1    -0.102337567433E+03    0.14364E-02   -0.40013E-01    96   0.184E+00    0.213E-01
DAV:   2    -0.102339147276E+03   -0.15798E-02   -0.19335E-02   132   0.440E-01    0.131E-01
DAV:   3    -0.102339025714E+03    0.12156E-03   -0.32278E-04   132   0.649E-02    0.683E-02
DAV:   4    -0.102338967240E+03    0.58473E-04   -0.13402E-04   132   0.435E-02    0.117E-02
DAV:   5    -0.102338962295E+03    0.49450E-05   -0.23183E-05   132   0.185E-02    0.771E-03
DAV:   6    -0.102338979082E+03   -0.16786E-04   -0.11622E-05   132   0.952E-03    0.398E-03
DAV:   7    -0.102339006803E+03   -0.27722E-04   -0.23725E-06   132   0.468E-03    0.207E-03
DAV:   8    -0.102339047783E+03   -0.40980E-04   -0.46602E-06   120   0.471E-03    0.130E-03
DAV:   9    -0.102339069522E+03   -0.21739E-04   -0.15902E-06   120   0.276E-03    0.865E-04
DAV:  10    -0.102339091337E+03   -0.21815E-04   -0.20337E-06   120   0.276E-03    0.471E-04
DAV:  11    -0.102339099139E+03   -0.78019E-05   -0.32711E-07   108   0.128E-03    0.325E-04
DAV:  12    -0.102339104421E+03   -0.52825E-05   -0.28306E-07   108   0.106E-03    0.175E-04
DAV:  13    -0.102339106054E+03   -0.16328E-05   -0.42405E-08   108   0.494E-04    0.110E-04
DAV:  14    -0.102339107221E+03   -0.11674E-05   -0.14682E-08   108   0.332E-04    0.559E-05
DAV:  15    -0.102339107630E+03   -0.40868E-06   -0.12658E-10   108   0.175E-04
  55 F= -.10233911E+03 E0= -.10233911E+03  d E =-.108141E-10
       N       E                     dE             d eps       ncg     rms          rms(c)
DAV:   1    -0.102339259934E+03   -0.15271E-03   -0.19896E-01    96   0.135E+00    0.145E-01
DAV:   2    -0.102340319315E+03   -0.10594E-02   -0.12603E-02   132   0.349E-01    0.837E-02
DAV:   3    -0.102340286139E+03    0.33176E-04   -0.20471E-04   132   0.474E-02    0.484E-02
DAV:   4    -0.102340260699E+03    0.25440E-04   -0.69259E-05   144   0.313E-02    0.810E-03
DAV:   5    -0.102340255013E+03    0.56864E-05   -0.13502E-05   132   0.132E-02    0.524E-03
DAV:   6    -0.102340257367E+03   -0.23540E-05   -0.39489E-06   120   0.650E-03    0.281E-03
DAV:   7    -0.102340267090E+03   -0.97234E-05   -0.13669E-06   120   0.394E-03    0.135E-03
DAV:   8    -0.102340282836E+03   -0.15746E-04   -0.88590E-07   108   0.254E-03    0.733E-04
DAV:   9    -0.102340296380E+03   -0.13544E-04   -0.99751E-07   120   0.216E-03    0.600E-04
DAV:  10    -0.102340308221E+03   -0.11841E-04   -0.67629E-07   108   0.180E-03    0.274E-04
DAV:  11    -0.102340311977E+03   -0.37557E-05   -0.16776E-07   108   0.867E-04    0.259E-04
DAV:  12    -0.102340315916E+03   -0.39396E-05   -0.11067E-07   108   0.783E-04    0.995E-05
DAV:  13    -0.102340317327E+03   -0.14104E-05   -0.38360E-08   108   0.451E-04    0.907E-05
DAV:  14    -0.102340318241E+03   -0.91448E-06   -0.69022E-09   108   0.271E-04
  56 F= -.10234032E+03 E0= -.10234032E+03  d E =-.596404E-11
       N       E                     dE             d eps       ncg     rms          rms(c)
DAV:   1    -0.102338839820E+03    0.14775E-02   -0.40893E-01    96   0.177E+00    0.191E-01
DAV:   2    -0.102340209791E+03   -0.13700E-02   -0.16434E-02   120   0.386E-01    0.962E-02
DAV:   3    -0.102340160837E+03    0.48954E-04   -0.32426E-04   144   0.632E-02    0.510E-02
DAV:   4    -0.102340131833E+03    0.29003E-04   -0.87119E-05   132   0.419E-02    0.969E-03
DAV:   5    -0.102340126851E+03    0.49827E-05   -0.32518E-05   132   0.212E-02    0.756E-03
DAV:   6    -0.102340127768E+03   -0.91736E-06   -0.51916E-06   132   0.736E-03
  57 F= -.10234013E+03 E0= -.10234013E+03  d E =-.365808E-10
       N       E                     dE             d eps       ncg     rms          rms(c)
DAV:   1    -0.102338798430E+03    0.13284E-02   -0.20590E-01    96   0.127E+00    0.142E-01
DAV:   2    -0.102339437890E+03   -0.63946E-03   -0.75359E-03   132   0.251E-01    0.606E-02
DAV:   3    -0.102339433275E+03    0.46154E-05   -0.16909E-04   144   0.450E-02    0.320E-02
DAV:   4    -0.102339439417E+03   -0.61422E-05   -0.33293E-05   132   0.286E-02    0.731E-03
DAV:   5    -0.102339444504E+03   -0.50874E-05   -0.15015E-05   132   0.146E-02    0.573E-03
DAV:   6    -0.102339447341E+03   -0.28374E-05   -0.13959E-06   120   0.394E-03    0.421E-03
DAV:   7    -0.102339453731E+03   -0.63891E-05   -0.46521E-07   108   0.241E-03    0.143E-03
DAV:   8    -0.102339459598E+03   -0.58677E-05   -0.45064E-07   108   0.227E-03    0.895E-04
DAV:   9    -0.102339469392E+03   -0.97941E-05   -0.59418E-07   108   0.283E-03    0.610E-04
DAV:  10    -0.102339471937E+03   -0.25441E-05   -0.22681E-07   108   0.146E-03    0.671E-04
DAV:  11    -0.102339473311E+03   -0.13745E-05   -0.23152E-08   108   0.591E-04    0.439E-04
DAV:  12    -0.102339476172E+03   -0.28609E-05   -0.65172E-08   108   0.640E-04    0.119E-04
DAV:  13    -0.102339478085E+03   -0.19135E-05   -0.42364E-08   108   0.480E-04    0.207E-04
DAV:  14    -0.102339479182E+03   -0.10970E-05   -0.12533E-08   108   0.300E-04    0.985E-05
DAV:  15    -0.102339479580E+03   -0.39774E-06    0.14667E-09   108   0.164E-04
  58 F= -.10233948E+03 E0= -.10233948E+03  d E =-.110964E-10
       N       E                     dE             d eps       ncg     rms          rms(c)
DAV:   1    -0.102338128880E+03    0.13503E-02   -0.40448E-01    96   0.185E+00    0.221E-01
DAV:   2    -0.102339605047E+03   -0.14762E-02   -0.18293E-02   132   0.422E-01    0.115E-01
DAV:   3    -0.102339517409E+03    0.87637E-04   -0.36061E-04   144   0.648E-02    0.588E-02
DAV:   4    -0.102339459977E+03    0.57432E-04   -0.84625E-05   132   0.382E-02    0.118E-02
DAV:   5    -0.102339454276E+03    0.57005E-05   -0.21149E-05   132   0.178E-02    0.760E-03
DAV:   6    -0.102339466654E+03   -0.12378E-04   -0.77528E-06   132   0.863E-03    0.429E-03
DAV:   7    -0.102339490054E+03   -0.23400E-04   -0.24879E-06   132   0.502E-03    0.208E-03
DAV:   8    -0.102339521494E+03   -0.31440E-04   -0.30209E-06   120   0.429E-03    0.124E-03
DAV:   9    -0.102339542836E+03   -0.21342E-04   -0.18304E-06   120   0.318E-03    0.984E-04
DAV:  10    -0.102339561236E+03   -0.18400E-04   -0.16108E-06   120   0.268E-03    0.359E-04
DAV:  11    -0.102339568340E+03   -0.71034E-05   -0.30409E-07   108   0.129E-03    0.344E-04
DAV:  12    -0.102339574008E+03   -0.56680E-05   -0.31149E-07   108   0.112E-03    0.138E-04
DAV:  13    -0.102339575415E+03   -0.14077E-05   -0.42609E-08   108   0.465E-04    0.951E-05
DAV:  14    -0.102339576536E+03   -0.11202E-05   -0.11335E-08   108   0.316E-04    0.487E-05
DAV:  15    -0.102339577007E+03   -0.47103E-06   -0.29755E-09   108   0.205E-04
  59 F= -.10233958E+03 E0= -.10233958E+03  d E =-.135204E-10
       N       E                     dE             d eps       ncg     rms          rms(c)
DAV:   1    -0.102338369852E+03    0.12067E-02   -0.20180E-01    96   0.133E+00    0.155E-01
DAV:   2    -0.102339091991E+03   -0.72214E-03   -0.89622E-03   132   0.303E-01    0.784E-02
DAV:   3    -0.102339047262E+03    0.44729E-04   -0.15465E-04   132   0.418E-02    0.406E-02
DAV:   4    -0.102339014526E+03    0.32736E-04   -0.39909E-05   132   0.237E-02    0.808E-03
DAV:   5    -0.102339006793E+03    0.77329E-05   -0.72268E-06   132   0.113E-02    0.448E-03
DAV:   6    -0.102339008655E+03   -0.18618E-05   -0.36059E-06   132   0.727E-03    0.230E-03
DAV:   7    -0.102339018055E+03   -0.93999E-05   -0.18538E-06   132   0.485E-03    0.149E-03
DAV:   8    -0.102339029628E+03   -0.11573E-04   -0.52505E-07   108   0.229E-03    0.826E-04
DAV:   9    -0.102339043463E+03   -0.13835E-04   -0.84679E-07   108   0.209E-03    0.552E-04
DAV:  10    -0.102339054607E+03   -0.11143E-04   -0.55151E-07   108   0.155E-03    0.265E-04
DAV:  11    -0.102339061262E+03   -0.66556E-05   -0.21163E-07   108   0.989E-04    0.202E-04
DAV:  12    -0.102339064988E+03   -0.37262E-05   -0.53296E-08   108   0.537E-04    0.980E-05
DAV:  13    -0.102339067160E+03   -0.21715E-05   -0.36248E-08   108   0.416E-04    0.504E-05
DAV:  14    -0.102339068023E+03   -0.86287E-06   -0.42487E-09   108   0.230E-04
  60 F= -.10233907E+03 E0= -.10233907E+03  d E =-.106503E-10
       N       E                     dE             d eps       ncg     rms          rms(c)
DAV:   1    -0.102338018029E+03    0.10491E-02   -0.40482E-01    96   0.186E+00    0.211E-01
DAV:   2    -0.102339406398E+03   -0.13884E-02   -0.17615E-02   132   0.411E-01    0.121E-01
DAV:   3    -0.102339292606E+03    0.11379E-03   -0.28684E-04   132   0.588E-02    0.599E-02
DAV:   4    -0.102339218610E+03    0.73996E-04   -0.96774E-05   132   0.359E-02    0.114E-02
DAV:   5    -0.102339216867E+03    0.17433E-05   -0.13881E-05   132   0.151E-02    0.688E-03
DAV:   6    -0.102339241887E+03   -0.25020E-04   -0.12194E-05   132   0.109E-02    0.334E-03
DAV:   7    -0.102339272409E+03   -0.30522E-04   -0.44592E-06   132   0.654E-03    0.232E-03
DAV:   8    -0.102339312253E+03   -0.39844E-04   -0.35526E-06   108   0.429E-03    0.110E-03
DAV:   9    -0.102339341157E+03   -0.28904E-04   -0.28410E-06   120   0.357E-03    0.871E-04
DAV:  10    -0.102339363355E+03   -0.22198E-04   -0.21993E-06   120   0.290E-03    0.328E-04
DAV:  11    -0.102339370642E+03   -0.72873E-05   -0.36540E-07   108   0.139E-03    0.305E-04
DAV:  12    -0.102339374436E+03   -0.37936E-05   -0.13910E-07   108   0.791E-04    0.135E-04
DAV:  13    -0.102339376562E+03   -0.21261E-05   -0.69516E-08   108   0.551E-04    0.796E-05
DAV:  14    -0.102339377587E+03   -0.10254E-05   -0.12842E-08   108   0.328E-04    0.480E-05
DAV:  15    -0.102339378067E+03   -0.47962E-06   -0.11728E-09   108   0.193E-04
  61 F= -.10233938E+03 E0= -.10233938E+03  d E =-.170361E-10
       N       E                     dE             d eps       ncg     rms          rms(c)
DAV:   1    -0.102342267061E+03   -0.28895E-02   -0.23276E-01    96   0.168E+00    0.135E-01
DAV:   2    -0.102342690597E+03   -0.42354E-03   -0.62170E-03   132   0.255E-01    0.790E-02
DAV:   3    -0.102342632305E+03    0.58291E-04   -0.16389E-04   132   0.449E-02    0.355E-02
DAV:   4    -0.102342614187E+03    0.18118E-04   -0.58474E-05   132   0.269E-02    0.758E-03
DAV:   5    -0.102342610128E+03    0.40593E-05   -0.76013E-06   132   0.108E-02    0.527E-03
DAV:   6    -0.102342611321E+03   -0.11933E-05   -0.33905E-06   132   0.604E-03    0.214E-03
DAV:   7    -0.102342615933E+03   -0.46113E-05   -0.71786E-07   108   0.339E-03    0.123E-03
DAV:   8    -0.102342624244E+03   -0.83120E-05   -0.54478E-07   108   0.223E-03    0.749E-04
DAV:   9    -0.102342633229E+03   -0.89844E-05   -0.53188E-07   108   0.188E-03    0.410E-04
DAV:  10    -0.102342641272E+03   -0.80430E-05   -0.42689E-07   108   0.142E-03    0.317E-04
DAV:  11    -0.102342645717E+03   -0.44453E-05   -0.12305E-07   108   0.863E-04    0.163E-04
DAV:  12    -0.102342647853E+03   -0.21357E-05   -0.39990E-08   108   0.488E-04    0.132E-04
DAV:  13    -0.102342648701E+03   -0.84790E-06   -0.55359E-09   108   0.268E-04
  62 F= -.10234265E+03 E0= -.10234265E+03  d E =-.113122E-10
       N       E                     dE             d eps       ncg     rms          rms(c)
DAV:   1    -0.102342633702E+03    0.14151E-04   -0.52773E-01    96   0.257E+00    0.172E-01
DAV:   2    -0.102342508856E+03    0.12485E-03   -0.27461E-03   120   0.184E-01    0.974E-02
DAV:   3    -0.102342374526E+03    0.13433E-03   -0.39356E-04   132   0.616E-02    0.200E-02
DAV:   4    -0.102342377223E+03   -0.26969E-05   -0.68533E-05   132   0.267E-02    0.101E-02
DAV:   5    -0.102342378071E+03   -0.84772E-06   -0.27907E-06   132   0.603E-03
  63 F= -.10234238E+03 E0= -.10234238E+03  d E =-.110341E-10
       N       E                     dE             d eps       ncg     rms          rms(c)
DAV:   1    -0.102341633946E+03    0.74328E-03   -0.27194E-01    96   0.185E+00    0.146E-01
DAV:   2    -0.102341613671E+03    0.20274E-04   -0.23416E-03   120   0.163E-01    0.800E-02
DAV:   3    -0.102341525524E+03    0.88148E-04   -0.25282E-04   132   0.463E-02    0.226E-02
DAV:   4    -0.102341523588E+03    0.19360E-05   -0.57762E-05   132   0.219E-02    0.798E-03
DAV:   5    -0.102341522064E+03    0.15242E-05   -0.29197E-06   132   0.682E-03    0.400E-03
DAV:   6    -0.102341522299E+03   -0.23591E-06   -0.21814E-06   132   0.524E-03
  64 F= -.10234152E+03 E0= -.10234152E+03  d E =-.138264E-10
       N       E                     dE             d eps       ncg     rms          rms(c)
DAV:   1    -0.102341502415E+03    0.19649E-04   -0.53679E-01   108   0.261E+00    0.197E-01
DAV:   2    -0.102341389909E+03    0.11251E-03   -0.40632E-03   120   0.217E-01    0.108E-01
DAV:   3    -0.102341209827E+03    0.18008E-03   -0.49667E-04   132   0.608E-02    0.295E-02
DAV:   4    -0.102341198244E+03    0.11584E-04   -0.78493E-05   132   0.264E-02    0.112E-02
DAV:   5    -0.102341197955E+03    0.28887E-06   -0.62573E-06   132   0.937E-03
  65 F= -.10234120E+03 E0= -.10234120E+03  d E =-.924727E-11
       N       E                     dE             d eps       ncg     rms          rms(c)
DAV:   1    -0.102342615646E+03   -0.14174E-02   -0.27136E-01   108   0.183E+00    0.143E-01
DAV:   2    -0.102342576485E+03    0.39161E-04   -0.21839E-03   120   0.159E-01    0.788E-02
DAV:   3    -0.102342493987E+03    0.82498E-04   -0.26301E-04   132   0.496E-02    0.213E-02
DAV:   4    -0.102342496918E+03   -0.29308E-05   -0.62971E-05   132   0.240E-02    0.793E-03
DAV:   5    -0.102342496475E+03    0.44291E-06   -0.23202E-06   132   0.585E-03
  66 F= -.10234250E+03 E0= -.10234250E+03  d E =-.112539E-10
       N       E                     dE             d eps       ncg     rms          rms(c)
DAV:   1    -0.102342866691E+03   -0.36977E-03   -0.53419E-01   108   0.256E+00    0.170E-01
DAV:   2    -0.102342721428E+03    0.14526E-03   -0.27192E-03   132   0.176E-01    0.972E-02
DAV:   3    -0.102342583131E+03    0.13830E-03   -0.43900E-04   132   0.656E-02    0.170E-02
DAV:   4    -0.102342588094E+03   -0.49635E-05   -0.81331E-05   132   0.287E-02    0.919E-03
DAV:   5    -0.102342587111E+03    0.98277E-06   -0.21487E-06   132   0.534E-03
  67 F= -.10234259E+03 E0= -.10234259E+03  d E =-.121212E-10
       N       E                     dE             d eps       ncg     rms          rms(c)
DAV:   1    -0.102343146211E+03   -0.55812E-03   -0.26508E-01    96   0.188E+00    0.118E-01
DAV:   2    -0.102343126307E+03    0.19905E-04   -0.14110E-03   132   0.133E-01    0.683E-02
DAV:   3    -0.102343072539E+03    0.53768E-04   -0.14192E-04   132   0.369E-02    0.106E-02
DAV:   4    -0.102343074175E+03   -0.16363E-05   -0.21228E-05   132   0.148E-02    0.486E-03
DAV:   5    -0.102343074288E+03   -0.11248E-06   -0.51505E-07   108   0.285E-03
  68 F= -.10234307E+03 E0= -.10234307E+03  d E =-.108689E-10
       N       E                     dE             d eps       ncg     rms          rms(c)
DAV:   1    -0.102343214150E+03   -0.13997E-03   -0.52526E-01    96   0.247E+00    0.159E-01
DAV:   2    -0.102343095974E+03    0.11818E-03   -0.21569E-03   120   0.163E-01    0.923E-02
DAV:   3    -0.102342997958E+03    0.98016E-04   -0.36373E-04   132   0.638E-02    0.126E-02
DAV:   4    -0.102343004650E+03   -0.66923E-05   -0.63920E-05   132   0.267E-02    0.937E-03
DAV:   5    -0.102343004834E+03   -0.18382E-06   -0.15405E-06   120   0.453E-03
  69 F= -.10234300E+03 E0= -.10234300E+03  d E =-.129403E-10
       N       E                     dE             d eps       ncg     rms          rms(c)
DAV:   1    -0.102343105260E+03   -0.10061E-03   -0.26590E-01    96   0.173E+00    0.113E-01
DAV:   2    -0.102343043903E+03    0.61356E-04   -0.10761E-03   132   0.110E-01    0.651E-02
DAV:   3    -0.102342992093E+03    0.51810E-04   -0.18038E-04   132   0.409E-02    0.927E-03
DAV:   4    -0.102342993846E+03   -0.17523E-05   -0.27200E-05   132   0.172E-02    0.566E-03
DAV:   5    -0.102342993585E+03    0.26076E-06   -0.70441E-07   108   0.314E-03
  70 F= -.10234299E+03 E0= -.10234299E+03  d E =-.130413E-10
       N       E                     dE             d eps       ncg     rms          rms(c)
DAV:   1    -0.102343089519E+03   -0.95674E-04   -0.52982E-01    96   0.246E+00    0.162E-01
DAV:   2    -0.102342969272E+03    0.12025E-03   -0.22037E-03   132   0.158E-01    0.927E-02
DAV:   3    -0.102342856332E+03    0.11294E-03   -0.34169E-04   132   0.562E-02    0.145E-02
DAV:   4    -0.102342858595E+03   -0.22630E-05   -0.46577E-05   132   0.229E-02    0.815E-03
DAV:   5    -0.102342858649E+03   -0.53896E-07   -0.20308E-06   132   0.497E-03
  71 F= -.10234286E+03 E0= -.10234286E+03  d E =-.101790E-10
       N       E                     dE             d eps       ncg     rms          rms(c)
DAV:   1    -0.102340692422E+03    0.21662E-02   -0.26677E-01    96   0.174E+00    0.123E-01
DAV:   2    -0.102340617420E+03    0.75002E-04   -0.14906E-03   132   0.131E-01    0.694E-02
DAV:   3    -0.102340543768E+03    0.73652E-04   -0.22323E-04   132   0.463E-02    0.142E-02
DAV:   4    -0.102340546794E+03   -0.30254E-05   -0.44287E-05   132   0.211E-02    0.706E-03
DAV:   5    -0.102340547945E+03   -0.11511E-05   -0.10934E-06   108   0.416E-03    0.447E-03
DAV:   6    -0.102340551699E+03   -0.37543E-05   -0.18369E-06   120   0.471E-03    0.850E-04
DAV:   7    -0.102340553996E+03   -0.22972E-05   -0.54357E-07   108   0.254E-03    0.649E-04
DAV:   8    -0.102340556950E+03   -0.29536E-05   -0.16042E-07   108   0.114E-03    0.314E-04
DAV:   9    -0.102340559475E+03   -0.25254E-05   -0.12973E-07   108   0.847E-04    0.181E-04
DAV:  10    -0.102340561605E+03   -0.21300E-05   -0.12197E-07   108   0.730E-04    0.111E-04
DAV:  11    -0.102340562605E+03   -0.99952E-06   -0.40987E-08   108   0.453E-04
  72 F= -.10234056E+03 E0= -.10234056E+03  d E =-.107176E-10
       N       E                     dE             d eps       ncg     rms          rms(c)
[...]
DAV:   9    -0.102340870976E+03   -0.40165E-05   -0.25255E-07   108   0.139E-03    0.556E-04
DAV:  10    -0.102340876265E+03   -0.52886E-05   -0.41847E-07    96   0.154E-03    0.395E-04
DAV:  11    -0.102340877556E+03   -0.12909E-05   -0.88128E-08   108   0.794E-04    0.301E-04
DAV:  12    -0.102340877963E+03   -0.40695E-06   -0.44744E-09   108   0.333E-04
 129 F= -.10234088E+03 E0= -.10234088E+03  d E =-.113603E-10
       N       E                     dE             d eps       ncg     rms          rms(c)
DAV:   1    -0.102343360729E+03   -0.24832E-02   -0.28256E-01    96   0.177E+00    0.189E-01
DAV:   2    -0.102343167739E+03    0.19299E-03   -0.21939E-03   132   0.160E-01    0.938E-02
DAV:   3    -0.102343046341E+03    0.12140E-03   -0.32773E-04   132   0.540E-02    0.324E-02
DAV:   4    -0.102343042705E+03    0.36361E-05   -0.78656E-05   132   0.265E-02    0.112E-02
DAV:   5    -0.102343041541E+03    0.11636E-05   -0.40459E-06   132   0.859E-03    0.462E-03
DAV:   6    -0.102343042470E+03   -0.92823E-06   -0.24345E-06   132   0.538E-03
 130 F= -.10234304E+03 E0= -.10234304E+03  d E =-.158507E-10
       N       E                     dE             d eps       ncg     rms          rms(c)
DAV:   1    -0.102343333241E+03   -0.29170E-03   -0.54129E-01    96   0.247E+00    0.197E-01
DAV:   2    -0.102343106937E+03    0.22630E-03   -0.30053E-03   120   0.183E-01    0.112E-01
DAV:   3    -0.102342950159E+03    0.15678E-03   -0.45838E-04   132   0.660E-02    0.236E-02
DAV:   4    -0.102342956795E+03   -0.66356E-05   -0.70298E-05   132   0.274E-02    0.902E-03
DAV:   5    -0.102342957469E+03   -0.67451E-06   -0.33200E-06   132   0.662E-03
 131 F= -.10234296E+03 E0= -.10234296E+03  d E =-.964728E-11
       N       E                     dE             d eps       ncg     rms          rms(c)
DAV:   1    -0.102342736870E+03    0.21992E-03   -0.27112E-01    96   0.173E+00    0.139E-01
DAV:   2    -0.102342618398E+03    0.11847E-03   -0.14594E-03   132   0.128E-01    0.782E-02
DAV:   3    -0.102342540687E+03    0.77712E-04   -0.22268E-04   132   0.458E-02    0.175E-02
DAV:   4    -0.102342543843E+03   -0.31562E-05   -0.35402E-05   132   0.192E-02    0.630E-03
DAV:   5    -0.102342544445E+03   -0.60182E-06   -0.15937E-06   108   0.492E-03
 132 F= -.10234254E+03 E0= -.10234254E+03  d E =-.124613E-10
       N       E                     dE             d eps       ncg     rms          rms(c)
DAV:   1    -0.102343018630E+03   -0.47479E-03   -0.55049E-01    96   0.248E+00    0.223E-01
DAV:   2    -0.102342727262E+03    0.29137E-03   -0.32856E-03   132   0.191E-01    0.118E-01
DAV:   3    -0.102342544759E+03    0.18250E-03   -0.48662E-04   132   0.671E-02    0.360E-02
DAV:   4    -0.102342546650E+03   -0.18907E-05   -0.10780E-04   132   0.318E-02    0.121E-02
DAV:   5    -0.102342545692E+03    0.95837E-06   -0.59685E-06   132   0.957E-03
 133 F= -.10234255E+03 E0= -.10234255E+03  d E =-.111758E-10
       N       E                     dE             d eps       ncg     rms          rms(c)
DAV:   1    -0.102342706833E+03   -0.16018E-03   -0.27618E-01    96   0.204E+00    0.160E-01
DAV:   2    -0.102342613214E+03    0.93619E-04   -0.21181E-03   120   0.169E-01    0.857E-02
DAV:   3    -0.102342523900E+03    0.89314E-04   -0.21663E-04   132   0.486E-02    0.284E-02
DAV:   4    -0.102342523453E+03    0.44746E-06   -0.61591E-05   132   0.247E-02    0.849E-03
DAV:   5    -0.102342522714E+03    0.73921E-06   -0.39116E-06   144   0.770E-03
 134 F= -.10234252E+03 E0= -.10234252E+03  d E =-.128438E-10
       N       E                     dE             d eps       ncg     rms          rms(c)
DAV:   1    -0.102342703268E+03   -0.17982E-03   -0.55264E-01    96   0.266E+00    0.233E-01
DAV:   2    -0.102342399774E+03    0.30349E-03   -0.34115E-03   132   0.204E-01    0.121E-01
DAV:   3    -0.102342184661E+03    0.21511E-03   -0.45701E-04   132   0.640E-02    0.396E-02
DAV:   4    -0.102342178969E+03    0.56913E-05   -0.12094E-04   132   0.328E-02    0.122E-02
DAV:   5    -0.102342179134E+03   -0.16417E-06   -0.75646E-06   132   0.111E-02
 135 F= -.10234218E+03 E0= -.10234218E+03  d E =-.102982E-10
       N       E                     dE             d eps       ncg     rms          rms(c)
DAV:   1    -0.102341753115E+03    0.42585E-03   -0.28988E-01    96   0.190E+00    0.210E-01
DAV:   2    -0.102341515920E+03    0.23720E-03   -0.24946E-03   132   0.181E-01    0.103E-01
DAV:   3    -0.102341370173E+03    0.14575E-03   -0.39736E-04   132   0.650E-02    0.365E-02
DAV:   4    -0.102341371440E+03   -0.12670E-05   -0.13028E-04   132   0.357E-02    0.148E-02
DAV:   5    -0.102341370100E+03    0.13402E-05   -0.53793E-06   132   0.963E-03    0.654E-03
DAV:   6    -0.102341370177E+03   -0.76690E-07   -0.29724E-06   132   0.642E-03
 136 F= -.10234137E+03 E0= -.10234137E+03  d E =-.116266E-10
       N       E                     dE             d eps       ncg     rms          rms(c)
DAV:   1    -0.102342125474E+03   -0.75537E-03   -0.57251E-01    96   0.268E+00    0.271E-01
DAV:   2    -0.102341585348E+03    0.54013E-03   -0.44805E-03   132   0.244E-01    0.137E-01
DAV:   3    -0.102341287220E+03    0.29813E-03   -0.83659E-04   132   0.925E-02    0.447E-02
DAV:   4    -0.102341289828E+03   -0.26080E-05   -0.21471E-04   132   0.473E-02    0.206E-02
DAV:   5    -0.102341289263E+03    0.56462E-06   -0.74654E-06   132   0.112E-02
 137 F= -.10234129E+03 E0= -.10234129E+03  d E =-.116235E-10
       N       E                     dE             d eps       ncg     rms          rms(c)
DAV:   1    -0.102342966210E+03   -0.16764E-02   -0.28823E-01    96   0.191E+00    0.205E-01
DAV:   2    -0.102342722373E+03    0.24384E-03   -0.24424E-03   132   0.182E-01    0.101E-01
DAV:   3    -0.102342579372E+03    0.14300E-03   -0.40811E-04   132   0.660E-02    0.348E-02
DAV:   4    -0.102342581716E+03   -0.23433E-05   -0.12688E-04   132   0.356E-02    0.145E-02
DAV:   5    -0.102342580840E+03    0.87612E-06   -0.47320E-06   132   0.910E-03
 138 F= -.10234258E+03 E0= -.10234258E+03  d E =-.125159E-10
       N       E                     dE             d eps       ncg     rms          rms(c)
DAV:   1    -0.102342876872E+03   -0.29516E-03   -0.54731E-01    96   0.266E+00    0.227E-01
DAV:   2    -0.102342561550E+03    0.31532E-03   -0.33164E-03   132   0.208E-01    0.120E-01
DAV:   3    -0.102342362066E+03    0.19948E-03   -0.47933E-04   132   0.678E-02    0.361E-02
DAV:   4    -0.102342363932E+03   -0.18664E-05   -0.10226E-04   144   0.318E-02    0.125E-02
DAV:   5    -0.102342364132E+03   -0.19975E-06   -0.57152E-06   132   0.946E-03
 139 F= -.10234236E+03 E0= -.10234236E+03  d E =-.111057E-10
       N       E                     dE             d eps       ncg     rms          rms(c)
DAV:   1    -0.102342319512E+03    0.44421E-04   -0.27641E-01    96   0.192E+00    0.166E-01
DAV:   2    -0.102342218104E+03    0.10141E-03   -0.18909E-03   120   0.150E-01    0.876E-02
DAV:   3    -0.102342126292E+03    0.91812E-04   -0.26635E-04   132   0.462E-02    0.269E-02
DAV:   4    -0.102342124076E+03    0.22161E-05   -0.44794E-05   132   0.198E-02    0.105E-02
DAV:   5    -0.102342122460E+03    0.16160E-05   -0.23951E-06   144   0.701E-03    0.533E-03
DAV:   6    -0.102342122360E+03    0.10007E-06   -0.24007E-06   132   0.599E-03
 140 F= -.10234212E+03 E0= -.10234212E+03  d E =-.124986E-10
       N       E                     dE             d eps       ncg     rms          rms(c)
DAV:   1    -0.102342709066E+03   -0.58661E-03   -0.55658E-01    96   0.256E+00    0.243E-01
DAV:   2    -0.102342339743E+03    0.36932E-03   -0.34175E-03   132   0.204E-01    0.124E-01
DAV:   3    -0.102342118933E+03    0.22081E-03   -0.53207E-04   132   0.669E-02    0.391E-02
DAV:   4    -0.102342111777E+03    0.71553E-05   -0.11098E-04   132   0.316E-02    0.130E-02
DAV:   5    -0.102342111821E+03   -0.43074E-07   -0.60516E-06   132   0.104E-02
 141 F= -.10234211E+03 E0= -.10234211E+03  d E =-.103749E-10
       N       E                     dE             d eps       ncg     rms          rms(c)
DAV:   1    -0.102341321064E+03    0.79071E-03   -0.27299E-01    96   0.183E+00    0.139E-01
DAV:   2    -0.102341189891E+03    0.13117E-03   -0.15270E-03   132   0.135E-01    0.785E-02
DAV:   3    -0.102341104781E+03    0.85110E-04   -0.25264E-04   132   0.499E-02    0.170E-02
DAV:   4    -0.102341109851E+03   -0.50698E-05   -0.50008E-05   132   0.230E-02    0.850E-03
DAV:   5    -0.102341110395E+03   -0.54394E-06   -0.11551E-06   120   0.422E-03
 142 F= -.10234111E+03 E0= -.10234111E+03  d E =-.106327E-10
       N       E                     dE             d eps       ncg     rms          rms(c)
DAV:   1    -0.102341756332E+03   -0.64648E-03   -0.58123E-01    96   0.263E+00    0.288E-01
DAV:   2    -0.102341220320E+03    0.53601E-03   -0.48117E-03   132   0.248E-01    0.143E-01
DAV:   3    -0.102340904950E+03    0.31537E-03   -0.86814E-04   132   0.944E-02    0.476E-02
DAV:   4    -0.102340908678E+03   -0.37288E-05   -0.25294E-04   132   0.495E-02    0.200E-02
DAV:   5    -0.102340906525E+03    0.21535E-05   -0.87242E-06   132   0.123E-02    0.845E-03
DAV:   6    -0.102340906723E+03   -0.19760E-06   -0.58041E-06   120   0.880E-03
 143 F= -.10234091E+03 E0= -.10234091E+03  d E =-.130033E-10
       N       E                     dE             d eps       ncg     rms          rms(c)
DAV:   1    -0.102343337408E+03   -0.24309E-02   -0.28156E-01    96   0.184E+00    0.168E-01
DAV:   2    -0.102343117939E+03    0.21947E-03   -0.18510E-03   132   0.154E-01    0.894E-02
DAV:   3    -0.102343003971E+03    0.11397E-03   -0.33098E-04   132   0.582E-02    0.254E-02
DAV:   4    -0.102343009438E+03   -0.54668E-05   -0.80814E-05   132   0.285E-02    0.113E-02
DAV:   5    -0.102343009553E+03   -0.11470E-06   -0.26144E-06   132   0.651E-03
 144 F= -.10234301E+03 E0= -.10234301E+03  d E =-.124415E-10
       N       E                     dE             d eps       ncg     rms          rms(c)
DAV:   1    -0.102343422515E+03   -0.41308E-03   -0.54082E-01    96   0.257E+00    0.199E-01
DAV:   2    -0.102343162338E+03    0.26018E-03   -0.29131E-03   132   0.187E-01    0.112E-01
DAV:   3    -0.102342993653E+03    0.16869E-03   -0.43643E-04   132   0.658E-02    0.240E-02
DAV:   4    -0.102342998663E+03   -0.50101E-05   -0.69152E-05   132   0.270E-02    0.993E-03
DAV:   5    -0.102342999118E+03   -0.45561E-06   -0.30706E-06   144   0.643E-03
 145 F= -.10234300E+03 E0= -.10234300E+03  d E =-.108886E-10
       N       E                     dE             d eps       ncg     rms          rms(c)
DAV:   1    -0.102342364345E+03    0.63432E-03   -0.27031E-01    96   0.203E+00    0.134E-01
DAV:   2    -0.102342302969E+03    0.61376E-04   -0.18366E-03   132   0.159E-01    0.761E-02
DAV:   3    -0.102342227929E+03    0.75040E-04   -0.22551E-04   132   0.506E-02    0.183E-02
DAV:   4    -0.102342231137E+03   -0.32079E-05   -0.49477E-05   132   0.234E-02    0.765E-03
DAV:   5    -0.102342230977E+03    0.15986E-06   -0.15643E-06   120   0.515E-03
 146 F= -.10234223E+03 E0= -.10234223E+03  d E =-.134907E-10
       N       E                     dE             d eps       ncg     rms          rms(c)
DAV:   1    -0.102342477510E+03   -0.24637E-03   -0.53631E-01    96   0.267E+00    0.177E-01
DAV:   2    -0.102342359217E+03    0.11829E-03   -0.33755E-03   132   0.206E-01    0.101E-01
DAV:   3    -0.102342200284E+03    0.15893E-03   -0.49583E-04   132   0.705E-02    0.193E-02
DAV:   4    -0.102342204367E+03   -0.40824E-05   -0.97606E-05   132   0.326E-02    0.105E-02
DAV:   5    -0.102342203305E+03    0.10614E-05   -0.27929E-06   132   0.596E-03    0.659E-03
DAV:   6    -0.102342203994E+03   -0.68915E-06   -0.27349E-06   132   0.592E-03
 147 F= -.10234220E+03 E0= -.10234220E+03  d E =-.988692E-11
       N       E                     dE             d eps       ncg     rms          rms(c)
DAV:   1    -0.102341258270E+03    0.94504E-03   -0.26374E-01    96   0.187E+00    0.111E-01
DAV:   2    -0.102341201119E+03    0.57151E-04   -0.10844E-03   120   0.116E-01    0.641E-02
DAV:   3    -0.102341143523E+03    0.57596E-04   -0.17039E-04   132   0.409E-02    0.101E-02
DAV:   4    -0.102341146384E+03   -0.28611E-05   -0.25592E-05   132   0.172E-02    0.578E-03
DAV:   5    -0.102341147651E+03   -0.12667E-05   -0.94324E-07   108   0.360E-03    0.375E-03
DAV:   6    -0.102341150702E+03   -0.30515E-05   -0.85652E-07   108   0.338E-03    0.684E-04
DAV:   7    -0.102341152505E+03   -0.18021E-05   -0.30617E-07   108   0.191E-03    0.652E-04
DAV:   8    -0.102341155888E+03   -0.33830E-05   -0.21596E-07    96   0.167E-03    0.239E-04
DAV:   9    -0.102341157666E+03   -0.17784E-05   -0.13387E-07   108   0.104E-03    0.233E-04
DAV:  10    -0.102341159486E+03   -0.18198E-05   -0.56790E-08   108   0.672E-04    0.136E-04
DAV:  11    -0.102341160564E+03   -0.10785E-05   -0.42239E-08   108   0.448E-04    0.777E-05
DAV:  12    -0.102341161202E+03   -0.63796E-06   -0.11955E-08   108   0.278E-04
 148 F= -.10234116E+03 E0= -.10234116E+03  d E =-.110558E-10
       N       E                     dE             d eps       ncg     rms          rms(c)
DAV:   1    -0.102341397394E+03   -0.23683E-03   -0.54210E-01   108   0.271E+00    0.203E-01
DAV:   2    -0.102341309758E+03    0.87635E-04   -0.42859E-03   132   0.229E-01    0.111E-01
DAV:   3    -0.102341119475E+03    0.19028E-03   -0.48008E-04   132   0.644E-02    0.306E-02
DAV:   4    -0.102341110204E+03    0.92705E-05   -0.94574E-05   132   0.287E-02    0.106E-02
DAV:   5    -0.102341107894E+03    0.23105E-05   -0.61470E-06   132   0.100E-02    0.523E-03
DAV:   6    -0.102341110551E+03   -0.26569E-05   -0.41400E-06   132   0.730E-03    0.181E-03
DAV:   7    -0.102341114927E+03   -0.43768E-05   -0.10728E-06   120   0.370E-03    0.127E-03
DAV:   8    -0.102341120781E+03   -0.58531E-05   -0.34763E-07   108   0.206E-03    0.596E-04
DAV:   9    -0.102341126029E+03   -0.52482E-05   -0.30320E-07   108   0.151E-03    0.368E-04
DAV:  10    -0.102341132271E+03   -0.62424E-05   -0.32769E-07   108   0.128E-03    0.209E-04
DAV:  11    -0.102341134920E+03   -0.26486E-05   -0.66672E-08   108   0.681E-04    0.144E-04
DAV:  12    -0.102341137490E+03   -0.25700E-05   -0.45497E-08   108   0.475E-04    0.953E-05
DAV:  13    -0.102341138461E+03   -0.97174E-06   -0.11173E-08   108   0.283E-04
 149 F= -.10234114E+03 E0= -.10234114E+03  d E =-.120778E-10
       N       E                     dE             d eps       ncg     rms          rms(c)
DAV:   1    -0.102343159884E+03   -0.20224E-02   -0.26614E-01    96   0.189E+00    0.128E-01
DAV:   2    -0.102343080805E+03    0.79078E-04   -0.14893E-03   132   0.141E-01    0.715E-02
DAV:   3    -0.102343007427E+03    0.73378E-04   -0.21884E-04   132   0.465E-02    0.147E-02
DAV:   4    -0.102343008309E+03   -0.88209E-06   -0.36803E-05   132   0.198E-02    0.733E-03
DAV:   5    -0.102343008727E+03   -0.41825E-06   -0.15062E-06   108   0.470E-03
 150 F= -.10234301E+03 E0= -.10234301E+03  d E =-.121308E-10
       N       E                     dE             d eps       ncg     rms          rms(c)
DAV:   1    -0.102343300775E+03   -0.29247E-03   -0.52571E-01    96   0.267E+00    0.159E-01
DAV:   2    -0.102343181044E+03    0.11973E-03   -0.21927E-03   120   0.166E-01    0.922E-02
DAV:   3    -0.102343073101E+03    0.10794E-03   -0.35968E-04   132   0.608E-02    0.125E-02
DAV:   4    -0.102343079830E+03   -0.67284E-05   -0.55680E-05   132   0.247E-02    0.778E-03
DAV:   5    -0.102343080975E+03   -0.11456E-05   -0.17460E-06   120   0.462E-03    0.565E-03
DAV:   6    -0.102343084870E+03   -0.38952E-05   -0.15680E-06   108   0.413E-03    0.106E-03
DAV:   7    -0.102343087154E+03   -0.22836E-05   -0.41637E-07   108   0.211E-03    0.100E-03
DAV:   8    -0.102343090228E+03   -0.30739E-05   -0.13355E-07   108   0.154E-03    0.447E-04
DAV:   9    -0.102343094255E+03   -0.40275E-05   -0.26071E-07   108   0.188E-03    0.482E-04
DAV:  10    -0.102343096433E+03   -0.21775E-05   -0.12332E-07   108   0.106E-03    0.201E-04
DAV:  11    -0.102343097564E+03   -0.11312E-05   -0.33043E-08   108   0.464E-04    0.213E-04
DAV:  12    -0.102343098377E+03   -0.81316E-06   -0.15714E-08   108   0.343E-04
 151 F= -.10234310E+03 E0= -.10234310E+03  d E =-.990218E-11
       N       E                     dE             d eps       ncg     rms          rms(c)
DAV:   1    -0.102340928365E+03    0.21692E-02   -0.26672E-01    96   0.194E+00    0.130E-01
DAV:   2    -0.102340886374E+03    0.41991E-04   -0.20362E-03   120   0.162E-01    0.712E-02
DAV:   3    -0.102340806904E+03    0.79470E-04   -0.22141E-04   132   0.496E-02    0.195E-02
DAV:   4    -0.102340808036E+03   -0.11326E-05   -0.58311E-05   132   0.241E-02    0.694E-03
DAV:   5    -0.102340808388E+03   -0.35133E-06   -0.28650E-06   132   0.621E-03
 152 F= -.10234081E+03 E0= -.10234081E+03  d E =-.125231E-10
       N       E                     dE             d eps       ncg     rms          rms(c)
DAV:   1    -0.102341320275E+03   -0.51224E-03   -0.54530E-01    96   0.270E+00    0.205E-01
DAV:   2    -0.102341206045E+03    0.11423E-03   -0.43919E-03   132   0.234E-01    0.114E-01
DAV:   3    -0.102340998183E+03    0.20786E-03   -0.59912E-04   132   0.753E-02    0.296E-02
DAV:   4    -0.102340997393E+03    0.79002E-06   -0.13539E-04   132   0.359E-02    0.121E-02
DAV:   5    -0.102340994751E+03    0.26414E-05   -0.59848E-06   132   0.944E-03    0.609E-03
DAV:   6    -0.102340995653E+03   -0.90129E-06   -0.45550E-06   132   0.760E-03
 153 F= -.10234100E+03 E0= -.10234100E+03  d E =-.114889E-10
       N       E                     dE             d eps       ncg     rms          rms(c)
DAV:   1    -0.102343024624E+03   -0.20299E-02   -0.26890E-01    96   0.189E+00    0.139E-01
DAV:   2    -0.102342976096E+03    0.48528E-04   -0.19477E-03   120   0.151E-01    0.762E-02
DAV:   3    -0.102342898911E+03    0.77185E-04   -0.22753E-04   132   0.435E-02    0.212E-02
DAV:   4    -0.102342896877E+03    0.20334E-05   -0.41605E-05   132   0.195E-02    0.793E-03
DAV:   5    -0.102342896008E+03    0.86908E-06   -0.29178E-06   132   0.657E-03
 154 F= -.10234290E+03 E0= -.10234290E+03  d E =-.109435E-10
       N       E                     dE             d eps       ncg     rms          rms(c)
DAV:   1    -0.102343267871E+03   -0.37099E-03   -0.53118E-01    96   0.264E+00    0.160E-01
DAV:   2    -0.102343167742E+03    0.10013E-03   -0.21181E-03   120   0.159E-01    0.924E-02
DAV:   3    -0.102343058994E+03    0.10875E-03   -0.35435E-04   132   0.575E-02    0.138E-02
DAV:   4    -0.102343061810E+03   -0.28162E-05   -0.48574E-05   132   0.235E-02    0.779E-03
DAV:   5    -0.102343061229E+03    0.58106E-06   -0.17088E-06   132   0.472E-03
 155 F= -.10234306E+03 E0= -.10234306E+03  d E =-.118552E-10
       N       E                     dE             d eps       ncg     rms          rms(c)
DAV:   1    -0.102342631592E+03    0.43022E-03   -0.26455E-01    96   0.187E+00    0.116E-01
DAV:   2    -0.102342570800E+03    0.60792E-04   -0.11680E-03   132   0.122E-01    0.667E-02
DAV:   3    -0.102342519691E+03    0.51109E-04   -0.18694E-04   132   0.448E-02    0.937E-03
DAV:   4    -0.102342523475E+03   -0.37839E-05   -0.32807E-05   120   0.189E-02    0.601E-03
DAV:   5    -0.102342523900E+03   -0.42478E-06   -0.77884E-07   108   0.340E-03
 156 F= -.10234252E+03 E0= -.10234252E+03  d E =-.167130E-10
       N       E                     dE             d eps       ncg     rms          rms(c)
DAV:   1    -0.102342752555E+03   -0.22908E-03   -0.52679E-01    96   0.265E+00    0.173E-01
DAV:   2    -0.102342663059E+03    0.89495E-04   -0.28955E-03   120   0.187E-01    0.976E-02
DAV:   3    -0.102342531319E+03    0.13174E-03   -0.37327E-04   132   0.571E-02    0.210E-02
DAV:   4    -0.102342530734E+03    0.58550E-06   -0.59723E-05   132   0.239E-02    0.876E-03
DAV:   5    -0.102342530762E+03   -0.28646E-07   -0.37137E-06   132   0.667E-03
 157 F= -.10234253E+03 E0= -.10234253E+03  d E =-.793013E-11
