       N       E                     dE             d eps       ncg     rms          rms(c)
DAV:   1     0.244514404724E+03    0.24451E+03   -0.10211E+04   120   0.484E+02
DAV:   2    -0.233828246509E+02   -0.26790E+03   -0.25347E+03   156   0.915E+01
DAV:   3    -0.103878190128E+03   -0.80495E+02   -0.80266E+02   120   0.552E+01
DAV:   4    -0.107879856254E+03   -0.40017E+01   -0.39882E+01   120   0.177E+01
DAV:   5    -0.107963876507E+03   -0.84020E-01   -0.83931E-01   156   0.291E+00    0.158E+01
DAV:   6    -0.104379565856E+03    0.35843E+01   -0.16593E+00   120   0.443E+00    0.912E+00
DAV:   7    -0.102547921849E+03    0.18316E+01   -0.44328E+00   132   0.646E+00    0.132E+00
DAV:   8    -0.102494077755E+03    0.53844E-01   -0.34725E-01   132   0.224E+00    0.703E-01
DAV:   9    -0.102459481076E+03    0.34597E-01   -0.66061E-02   144   0.694E-01    0.376E-01
DAV:  10    -0.102458377689E+03    0.11034E-02   -0.34444E-03   120   0.205E-01    0.157E-01
DAV:  11    -0.102456953571E+03    0.14241E-02   -0.66927E-03   132   0.221E-01    0.109E-01
DAV:  12    -0.102461589136E+03   -0.46356E-02   -0.12679E-03   120   0.991E-02    0.582E-02
DAV:  13    -0.102465995412E+03   -0.44063E-02   -0.21359E-03   120   0.111E-01    0.461E-02
DAV:  14    -0.102468984039E+03   -0.29886E-02   -0.17830E-04   144   0.417E-02    0.241E-02
DAV:  15    -0.102474513455E+03   -0.55294E-02   -0.68990E-04   108   0.656E-02    0.168E-02
DAV:  16    -0.102475706774E+03   -0.11933E-02   -0.71580E-05   132   0.292E-02    0.942E-03
DAV:  17    -0.102477154320E+03   -0.14475E-02   -0.14985E-04   120   0.259E-02    0.752E-03
DAV:  18    -0.102477329271E+03   -0.17495E-03   -0.33689E-06   132   0.462E-03    0.295E-03
DAV:  19    -0.102477663770E+03   -0.33450E-03   -0.16677E-05   108   0.896E-03    0.232E-03
DAV:  20    -0.102477711725E+03   -0.47955E-04   -0.88098E-07    96   0.308E-03    0.133E-03
DAV:  21    -0.102477758716E+03   -0.46991E-04   -0.15778E-06    96   0.305E-03    0.635E-04
DAV:  22    -0.102477765767E+03   -0.70513E-05   -0.12884E-07    96   0.122E-03    0.462E-04
DAV:  23    -0.102477771348E+03   -0.55811E-05   -0.10434E-07    96   0.846E-04    0.186E-04
DAV:  24    -0.102477773926E+03   -0.25773E-05   -0.39401E-08    84   0.526E-04    0.163E-04
DAV:  25    -0.102477775265E+03   -0.13392E-05   -0.58473E-09    84   0.329E-04    0.627E-05
DAV:  26    -0.102477775829E+03   -0.56415E-06   -0.12554E-10   108   0.203E-04
   1 F= -.10247778E+03 E0= -.10247778E+03  d E =-.513624E-10
       N       E                     dE             d eps       ncg     rms          rms(c)
DAV:   1    -0.102474448401E+03    0.33269E-02   -0.82998E-02    96   0.845E-01    0.129E-01
DAV:   2    -0.102474796403E+03   -0.34800E-03   -0.39361E-03   132   0.214E-01    0.562E-02
DAV:   3    -0.102474783448E+03    0.12955E-04   -0.14596E-04   144   0.446E-02    0.294E-02
DAV:   4    -0.102474786173E+03   -0.27254E-05   -0.34205E-05   108   0.218E-02    0.840E-03
DAV:   5    -0.102474785411E+03    0.76275E-06   -0.65721E-06   132   0.995E-03
   2 F= -.10247479E+03 E0= -.10247479E+03  d E =-.525044E-10
       N       E                     dE             d eps       ncg     rms          rms(c)
DAV:   1    -0.102473234887E+03    0.15513E-02   -0.33152E-01    96   0.169E+00    0.264E-01
DAV:   2    -0.102474622401E+03   -0.13875E-02   -0.15690E-02   132   0.429E-01    0.112E-01
DAV:   3    -0.102474574673E+03    0.47728E-04   -0.57225E-04   132   0.880E-02    0.602E-02
DAV:   4    -0.102474590768E+03   -0.16094E-04   -0.14097E-04   108   0.441E-02    0.171E-02
DAV:   5    -0.102474588072E+03    0.26953E-05   -0.25909E-05   132   0.199E-02    0.974E-03
DAV:   6    -0.102474587742E+03    0.33060E-06   -0.51764E-06   132   0.789E-03
   3 F= -.10247459E+03 E0= -.10247459E+03  d E =-.779361E-10
       N       E                     dE             d eps       ncg     rms          rms(c)
DAV:   1    -0.102474156831E+03    0.43124E-03   -0.16827E-01    96   0.119E+00    0.160E-01
DAV:   2    -0.102474850963E+03   -0.69413E-03   -0.75611E-03   120   0.293E-01    0.757E-02
DAV:   3    -0.102474837747E+03    0.13216E-04   -0.26085E-04   120   0.607E-02    0.392E-02
DAV:   4    -0.102474850239E+03   -0.12492E-04   -0.62448E-05   108   0.294E-02    0.113E-02
DAV:   5    -0.102474849933E+03    0.30594E-06   -0.10513E-05   132   0.129E-02    0.604E-03
DAV:   6    -0.102474850426E+03   -0.49298E-06   -0.28225E-06   108   0.569E-03
   4 F= -.10247485E+03 E0= -.10247485E+03  d E =-.480412E-10
       N       E                     dE             d eps       ncg     rms          rms(c)
DAV:   1    -0.102473229849E+03    0.16201E-02   -0.33607E-01    96   0.170E+00    0.242E-01
DAV:   2    -0.102474646600E+03   -0.14168E-02   -0.15460E-02   108   0.418E-01    0.111E-01
DAV:   3    -0.102474610735E+03    0.35866E-04   -0.54431E-04   132   0.886E-02    0.579E-02
DAV:   4    -0.102474626884E+03   -0.16150E-04   -0.13903E-04   108   0.445E-02    0.162E-02
DAV:   5    -0.102474622538E+03    0.43461E-05   -0.26748E-05   132   0.202E-02    0.890E-03
DAV:   6    -0.102474622176E+03    0.36259E-06   -0.58140E-06   132   0.814E-03
   5 F= -.10247462E+03 E0= -.10247462E+03  d E =-.546006E-11
       N       E                     dE             d eps       ncg     rms          rms(c)
DAV:   1    -0.102472541616E+03    0.20809E-02   -0.16441E-01    96   0.120E+00    0.163E-01
DAV:   2    -0.102473456093E+03   -0.91448E-03   -0.97322E-03   132   0.333E-01    0.924E-02
DAV:   3    -0.102473416785E+03    0.39308E-04   -0.29169E-04   108   0.677E-02    0.490E-02
DAV:   4    -0.102473424770E+03   -0.79852E-05   -0.12047E-04   120   0.406E-02    0.117E-02
DAV:   5    -0.102473423283E+03    0.14869E-05   -0.21858E-05   132   0.176E-02    0.750E-03
DAV:   6    -0.102473425226E+03   -0.19422E-05   -0.38709E-06   132   0.623E-03    0.469E-03
DAV:   7    -0.102473430737E+03   -0.55115E-05   -0.43310E-07    96   0.242E-03    0.175E-03
DAV:   8    -0.102473436338E+03   -0.56010E-05   -0.51538E-07   108   0.250E-03    0.701E-04
DAV:   9    -0.102473442186E+03   -0.58478E-05   -0.41075E-07    84   0.191E-03    0.569E-04
DAV:  10    -0.102473449102E+03   -0.69157E-05   -0.52316E-07    96   0.169E-03    0.519E-04
DAV:  11    -0.102473450329E+03   -0.12270E-05   -0.64326E-08   108   0.798E-04    0.369E-04
DAV:  12    -0.102473451840E+03   -0.15111E-05   -0.35901E-08    84   0.557E-04    0.193E-04
DAV:  13    -0.102473453571E+03   -0.17317E-05   -0.68122E-08    96   0.558E-04    0.117E-04
DAV:  14    -0.102473454514E+03   -0.94287E-06   -0.19512E-08    96   0.323E-04
   6 F= -.10247345E+03 E0= -.10247345E+03  d E =-.698261E-10
       N       E                     dE             d eps       ncg     rms          rms(c)
DAV:   1    -0.102471142291E+03    0.23113E-02   -0.33682E-01    96   0.174E+00    0.268E-01
DAV:   2    -0.102473506098E+03   -0.23638E-02   -0.25435E-02    96   0.526E-01    0.169E-01
DAV:   3    -0.102473330661E+03    0.17544E-03   -0.67164E-04   144   0.109E-01    0.893E-02
DAV:   4    -0.102473327736E+03    0.29250E-05   -0.44956E-04   108   0.762E-02    0.173E-02
DAV:   5    -0.102473319084E+03    0.86518E-05   -0.76030E-05   132   0.318E-02    0.126E-02
DAV:   6    -0.102473319235E+03   -0.15059E-06   -0.11733E-05   132   0.954E-03    0.860E-03
DAV:   7    -0.102473329991E+03   -0.10756E-04   -0.93023E-07    84   0.350E-03    0.379E-03
DAV:   8    -0.102473349261E+03   -0.19269E-04   -0.22957E-06   120   0.534E-03    0.165E-03
DAV:   9    -0.102473362862E+03   -0.13602E-04   -0.12054E-06   132   0.288E-03    0.158E-03
DAV:  10    -0.102473382363E+03   -0.19501E-04   -0.82342E-07    96   0.207E-03    0.101E-03
DAV:  11    -0.102473389682E+03   -0.73186E-05   -0.29446E-07   108   0.125E-03    0.693E-04
DAV:  12    -0.102473398160E+03   -0.84781E-05   -0.27762E-07    84   0.115E-03    0.297E-04
DAV:  13    -0.102473401501E+03   -0.33410E-05   -0.88558E-08   108   0.624E-04    0.235E-04
DAV:  14    -0.102473403693E+03   -0.21913E-05   -0.19285E-08    84   0.375E-04    0.127E-04
DAV:  15    -0.102473405240E+03   -0.15475E-05   -0.26481E-08    84   0.350E-04    0.886E-05
DAV:  16    -0.102473405848E+03   -0.60840E-06    0.17250E-09   108   0.183E-04
   7 F= -.10247341E+03 E0= -.10247341E+03  d E =-.407826E-10
       N       E                     dE             d eps       ncg     rms          rms(c)
DAV:   1    -0.102472428605E+03    0.97664E-03   -0.19160E-01    96   0.136E+00    0.191E-01
DAV:   2    -0.102473820029E+03   -0.13914E-02   -0.14494E-02   120   0.428E-01    0.120E-01
DAV:   3    -0.102473736826E+03    0.83203E-04   -0.39582E-04   132   0.855E-02    0.641E-02
DAV:   4    -0.102473737579E+03   -0.75250E-06   -0.23074E-04   108   0.589E-02    0.122E-02
DAV:   5    -0.102473732509E+03    0.50699E-05   -0.43289E-05   132   0.240E-02    0.978E-03
DAV:   6    -0.102473733410E+03   -0.90088E-06   -0.45765E-06   132   0.675E-03
   8 F= -.10247373E+03 E0= -.10247373E+03  d E =-.571502E-10
       N       E                     dE             d eps       ncg     rms          rms(c)
DAV:   1    -0.102471845294E+03    0.18872E-02   -0.33588E-01    96   0.177E+00    0.264E-01
DAV:   2    -0.102473893685E+03   -0.20484E-02   -0.21066E-02   108   0.499E-01    0.154E-01
DAV:   3    -0.102473817814E+03    0.75871E-04   -0.55163E-04   108   0.927E-02    0.826E-02
DAV:   4    -0.102473815535E+03    0.22792E-05   -0.24751E-04   120   0.592E-02    0.158E-02
DAV:   5    -0.102473806018E+03    0.95163E-05   -0.45916E-05   132   0.257E-02    0.111E-02
DAV:   6    -0.102473804895E+03    0.11228E-05   -0.80468E-06   132   0.102E-02    0.679E-03
DAV:   7    -0.102473815890E+03   -0.10994E-04   -0.32488E-06   120   0.761E-03    0.225E-03
DAV:   8    -0.102473831173E+03   -0.15283E-04   -0.15776E-06   108   0.556E-03    0.161E-03
DAV:   9    -0.102473842860E+03   -0.11687E-04   -0.89762E-07   120   0.317E-03    0.179E-03
DAV:  10    -0.102473851472E+03   -0.86122E-05   -0.18684E-07    84   0.116E-03    0.912E-04
DAV:  11    -0.102473867535E+03   -0.16063E-04   -0.12926E-06   108   0.223E-03    0.718E-04
DAV:  12    -0.102473869858E+03   -0.23229E-05   -0.36626E-08   120   0.629E-04    0.451E-04
DAV:  13    -0.102473877064E+03   -0.72061E-05   -0.17136E-07    84   0.103E-03    0.372E-04
DAV:  14    -0.102473879619E+03   -0.25549E-05   -0.70275E-08    96   0.618E-04    0.356E-04
DAV:  15    -0.102473880402E+03   -0.78338E-06   -0.10050E-09   120   0.400E-04
   9 F= -.10247388E+03 E0= -.10247388E+03  d E =-.564913E-10
       N       E                     dE             d eps       ncg     rms          rms(c)
DAV:   1    -0.102471869845E+03    0.20098E-02   -0.16997E-01    96   0.126E+00    0.188E-01
DAV:   2    -0.102472938553E+03   -0.10687E-02   -0.11081E-02   120   0.365E-01    0.115E-01
DAV:   3    -0.102472887773E+03    0.50780E-04   -0.29957E-04   132   0.712E-02    0.611E-02
DAV:   4    -0.102472885266E+03    0.25074E-05   -0.16085E-04   108   0.480E-02    0.119E-02
DAV:   5    -0.102472880496E+03    0.47701E-05   -0.30207E-05   132   0.206E-02    0.886E-03
DAV:   6    -0.102472883130E+03   -0.26340E-05   -0.73716E-06   132   0.829E-03    0.543E-03
DAV:   7    -0.102472893824E+03   -0.10694E-04   -0.11775E-06   120   0.404E-03    0.218E-03
DAV:   8    -0.102472907499E+03   -0.13675E-04   -0.13960E-06   108   0.347E-03    0.862E-04
DAV:   9    -0.102472920905E+03   -0.13406E-04   -0.12335E-06   108   0.283E-03    0.110E-03
DAV:  10    -0.102472932261E+03   -0.11356E-04   -0.90768E-07    96   0.214E-03    0.427E-04
DAV:  11    -0.102472936999E+03   -0.47375E-05   -0.20975E-07    96   0.110E-03    0.193E-04
DAV:  12    -0.102472940845E+03   -0.38460E-05   -0.18275E-07    84   0.855E-04    0.185E-04
DAV:  13    -0.102472941988E+03   -0.11438E-05   -0.27783E-08   108   0.382E-04    0.167E-04
DAV:  14    -0.102472943132E+03   -0.11440E-05   -0.19812E-08    84   0.352E-04    0.372E-05
DAV:  15    -0.102472943417E+03   -0.28471E-06    0.17524E-10   108   0.172E-04
  10 F= -.10247294E+03 E0= -.10247294E+03  d E =-.531866E-10
       N       E                     dE             d eps       ncg     rms          rms(c)
DAV:   1    -0.102470376839E+03    0.25663E-02   -0.34452E-01    96   0.181E+00    0.270E-01
DAV:   2    -0.102473004319E+03   -0.26275E-02   -0.26910E-02   132   0.572E-01    0.184E-01
DAV:   3    -0.102472844789E+03    0.15953E-03   -0.64573E-04   132   0.112E-01    0.922E-02
DAV:   4    -0.102472864306E+03   -0.19517E-04   -0.48846E-04   120   0.814E-02    0.188E-02
DAV:   5    -0.102472848996E+03    0.15311E-04   -0.84562E-05   132   0.339E-02    0.125E-02
DAV:   6    -0.102472853117E+03   -0.41216E-05   -0.17832E-05   120   0.115E-02    0.671E-03
DAV:   7    -0.102472871028E+03   -0.17911E-04   -0.10339E-06   108   0.341E-03    0.332E-03
DAV:   8    -0.102472900419E+03   -0.29391E-04   -0.45186E-06   108   0.577E-03    0.160E-03
DAV:   9    -0.102472918966E+03   -0.18548E-04   -0.16027E-06   120   0.332E-03    0.152E-03
DAV:  10    -0.102472938985E+03   -0.20019E-04   -0.15077E-06   108   0.264E-03    0.532E-04
DAV:  11    -0.102472944532E+03   -0.55472E-05   -0.15895E-07   108   0.107E-03    0.335E-04
DAV:  12    -0.102472953082E+03   -0.85501E-05   -0.34156E-07    84   0.118E-03    0.161E-04
DAV:  13    -0.102472955333E+03   -0.22504E-05   -0.57134E-08   108   0.504E-04    0.192E-04
DAV:  14    -0.102472957895E+03   -0.25624E-05   -0.43274E-08    84   0.498E-04    0.119E-04
DAV:  15    -0.102472958372E+03   -0.47708E-06   -0.48836E-09   108   0.243E-04
  11 F= -.10247296E+03 E0= -.10247296E+03  d E =-.550869E-10
       N       E                     dE             d eps       ncg     rms          rms(c)
DAV:   1    -0.102473199922E+03   -0.24203E-03   -0.17122E-01    96   0.128E+00    0.193E-01
DAV:   2    -0.102474331593E+03   -0.11317E-02   -0.11752E-02   120   0.386E-01    0.120E-01
DAV:   3    -0.102474271102E+03    0.60490E-04   -0.32660E-04   156   0.773E-02    0.600E-02
DAV:   4    -0.102474276345E+03   -0.52429E-05   -0.18609E-04   108   0.509E-02    0.124E-02
DAV:   5    -0.102474269712E+03    0.66328E-05   -0.31037E-05   132   0.211E-02    0.790E-03
DAV:   6    -0.102474272344E+03   -0.26311E-05   -0.69403E-06   120   0.761E-03    0.467E-03
DAV:   7    -0.102474282068E+03   -0.97243E-05   -0.64684E-07   108   0.295E-03    0.202E-03
DAV:   8    -0.102474295476E+03   -0.13408E-04   -0.17499E-06   108   0.384E-03    0.105E-03
DAV:   9    -0.102474305160E+03   -0.96843E-05   -0.63987E-07    96   0.238E-03    0.844E-04
DAV:  10    -0.102474317318E+03   -0.12158E-04   -0.12307E-06    96   0.228E-03    0.453E-04
DAV:  11    -0.102474320058E+03   -0.27399E-05   -0.77467E-08   108   0.884E-04    0.299E-04
DAV:  12    -0.102474323503E+03   -0.34443E-05   -0.10589E-07    84   0.750E-04    0.136E-04
DAV:  13    -0.102474325624E+03   -0.21216E-05   -0.66113E-08    96   0.543E-04    0.162E-04
DAV:  14    -0.102474327110E+03   -0.14857E-05   -0.31495E-08    96   0.390E-04    0.891E-05
DAV:  15    -0.102474327598E+03   -0.48765E-06   -0.15089E-09   108   0.213E-04
  12 F= -.10247433E+03 E0= -.10247433E+03  d E =-.525929E-10
       N       E                     dE             d eps       ncg     rms          rms(c)
DAV:   1    -0.102472745534E+03    0.15816E-02   -0.33171E-01    96   0.170E+00    0.274E-01
DAV:   2    -0.102474459728E+03   -0.17142E-02   -0.18109E-02   132   0.453E-01    0.133E-01
DAV:   3    -0.102474404757E+03    0.54971E-04   -0.57502E-04   132   0.906E-02    0.722E-02
DAV:   4    -0.102474414270E+03   -0.95139E-05   -0.19504E-04   108   0.563E-02    0.162E-02
DAV:   5    -0.102474408423E+03    0.58472E-05   -0.49011E-05   144   0.266E-02    0.116E-02
DAV:   6    -0.102474408079E+03    0.34415E-06   -0.70579E-06   132   0.923E-03
  13 F= -.10247441E+03 E0= -.10247441E+03  d E =-.784593E-10
       N       E                     dE             d eps       ncg     rms          rms(c)
DAV:   1    -0.102471843472E+03    0.25650E-02   -0.16910E-01    96   0.130E+00    0.195E-01
DAV:   2    -0.102473150998E+03   -0.13075E-02   -0.13472E-02   132   0.405E-01    0.114E-01
DAV:   3    -0.102473096926E+03    0.54072E-04   -0.36336E-04   132   0.776E-02    0.659E-02
DAV:   4    -0.102473116054E+03   -0.19128E-04   -0.19684E-04   108   0.565E-02    0.134E-02
DAV:   5    -0.102473115633E+03    0.42067E-06   -0.54588E-05   132   0.273E-02    0.105E-02
DAV:   6    -0.102473114409E+03    0.12245E-05   -0.56645E-06   108   0.816E-03    0.720E-03
DAV:   7    -0.102473117687E+03   -0.32780E-05   -0.18497E-06   120   0.519E-03    0.279E-03
DAV:   8    -0.102473122813E+03   -0.51266E-05   -0.56785E-07    84   0.350E-03    0.772E-04
DAV:   9    -0.102473128968E+03   -0.61546E-05   -0.53357E-07    96   0.243E-03    0.103E-03
DAV:  10    -0.102473137368E+03   -0.83997E-05   -0.42167E-07    84   0.176E-03    0.325E-04
DAV:  11    -0.102473139940E+03   -0.25723E-05   -0.11814E-07   108   0.938E-04    0.287E-04
DAV:  12    -0.102473143156E+03   -0.32166E-05   -0.75399E-08    84   0.705E-04    0.159E-04
DAV:  13    -0.102473145671E+03   -0.25146E-05   -0.82770E-08   108   0.615E-04    0.122E-04
DAV:  14    -0.102473146816E+03   -0.11452E-05   -0.16761E-08    84   0.319E-04    0.926E-05
DAV:  15    -0.102473147633E+03   -0.81678E-06   -0.71714E-09   108   0.248E-04
  14 F= -.10247315E+03 E0= -.10247315E+03  d E =-.483600E-10
       N       E                     dE             d eps       ncg     rms          rms(c)
DAV:   1    -0.102471127710E+03    0.20191E-02   -0.35853E-01    96   0.181E+00    0.269E-01
DAV:   2    -0.102473437121E+03   -0.23094E-02   -0.23608E-02   108   0.568E-01    0.169E-01
DAV:   3    -0.102473325480E+03    0.11164E-03   -0.58033E-04   144   0.104E-01    0.891E-02
DAV:   4    -0.102473330749E+03   -0.52691E-05   -0.35986E-04   120   0.729E-02    0.171E-02
DAV:   5    -0.102473321026E+03    0.97232E-05   -0.75537E-05   120   0.324E-02    0.113E-02
DAV:   6    -0.102473327730E+03   -0.67035E-05   -0.13884E-05   132   0.108E-02    0.699E-03
DAV:   7    -0.102473349346E+03   -0.21617E-04   -0.15633E-06   108   0.430E-03    0.306E-03
DAV:   8    -0.102473378064E+03   -0.28718E-04   -0.34074E-06   120   0.530E-03    0.139E-03
DAV:   9    -0.102473396122E+03   -0.18058E-04   -0.16748E-06   120   0.346E-03    0.149E-03
DAV:  10    -0.102473417222E+03   -0.21100E-04   -0.18275E-06    96   0.303E-03    0.631E-04
DAV:  11    -0.102473421879E+03   -0.46565E-05   -0.18269E-07   108   0.124E-03    0.451E-04
DAV:  12    -0.102473427872E+03   -0.59933E-05   -0.19616E-07    84   0.104E-03    0.209E-04
DAV:  13    -0.102473431457E+03   -0.35854E-05   -0.16474E-07    96   0.828E-04    0.235E-04
DAV:  14    -0.102473433619E+03   -0.21620E-05   -0.51713E-08    96   0.535E-04    0.117E-04
DAV:  15    -0.102473434184E+03   -0.56427E-06   -0.77969E-09   108   0.269E-04
  15 F= -.10247343E+03 E0= -.10247343E+03  d E =-.739856E-10
       N       E                     dE             d eps       ncg     rms          rms(c)
DAV:   1    -0.102472698913E+03    0.73471E-03   -0.17816E-01    96   0.132E+00    0.191E-01
DAV:   2    -0.102473956150E+03   -0.12572E-02   -0.12865E-02   108   0.412E-01    0.127E-01
DAV:   3    -0.102473882843E+03    0.73308E-04   -0.31089E-04   144   0.778E-02    0.639E-02
DAV:   4    -0.102473887771E+03   -0.49286E-05   -0.22768E-04   108   0.564E-02    0.131E-02
DAV:   5    -0.102473879693E+03    0.80778E-05   -0.43435E-05   132   0.244E-02    0.858E-03
DAV:   6    -0.102473882522E+03   -0.28283E-05   -0.75259E-06   132   0.767E-03    0.427E-03
DAV:   7    -0.102473893624E+03   -0.11102E-04   -0.58301E-07   108   0.232E-03    0.208E-03
DAV:   8    -0.102473911757E+03   -0.18133E-04   -0.25566E-06   108   0.417E-03    0.127E-03
DAV:   9    -0.102473924144E+03   -0.12387E-04   -0.76294E-07    96   0.242E-03    0.784E-04
DAV:  10    -0.102473934955E+03   -0.10811E-04   -0.91371E-07    96   0.196E-03    0.358E-04
DAV:  11    -0.102473939411E+03   -0.44559E-05   -0.13464E-07   108   0.952E-04    0.206E-04
DAV:  12    -0.102473942741E+03   -0.33303E-05   -0.10952E-07    84   0.707E-04    0.175E-04
DAV:  13    -0.102473944277E+03   -0.15354E-05   -0.27054E-08   108   0.397E-04    0.119E-04
DAV:  14    -0.102473945404E+03   -0.11276E-05   -0.11518E-08    84   0.292E-04    0.523E-05
DAV:  15    -0.102473945773E+03   -0.36881E-06    0.19348E-09   108   0.158E-04
  16 F= -.10247395E+03 E0= -.10247395E+03  d E =-.538193E-10
       N       E                     dE             d eps       ncg     rms          rms(c)
DAV:   1    -0.102471478114E+03    0.24673E-02   -0.34515E-01    96   0.183E+00    0.259E-01
DAV:   2    -0.102473606301E+03   -0.21282E-02   -0.21866E-02    96   0.519E-01    0.155E-01
DAV:   3    -0.102473515116E+03    0.91185E-04   -0.55490E-04   144   0.971E-02    0.840E-02
DAV:   4    -0.102473518635E+03   -0.35190E-05   -0.31844E-04   132   0.688E-02    0.162E-02
DAV:   5    -0.102473509725E+03    0.89097E-05   -0.71244E-05   132   0.315E-02    0.127E-02
DAV:   6    -0.102473507800E+03    0.19253E-05   -0.12592E-05   132   0.114E-02    0.799E-03
DAV:   7    -0.102473516654E+03   -0.88548E-05   -0.26921E-06   132   0.618E-03    0.313E-03
DAV:   8    -0.102473531296E+03   -0.14641E-04   -0.15201E-06   132   0.455E-03    0.119E-03
DAV:   9    -0.102473547404E+03   -0.16109E-04   -0.97922E-07   108   0.299E-03    0.129E-03
DAV:  10    -0.102473564317E+03   -0.16912E-04   -0.10976E-06    96   0.243E-03    0.672E-04
DAV:  11    -0.102473572764E+03   -0.84474E-05   -0.26579E-07   108   0.131E-03    0.256E-04
DAV:  12    -0.102473578745E+03   -0.59806E-05   -0.16457E-07    96   0.846E-04    0.236E-04
DAV:  13    -0.102473582178E+03   -0.34334E-05   -0.57238E-08   108   0.513E-04    0.155E-04
DAV:  14    -0.102473584258E+03   -0.20803E-05   -0.27650E-08    84   0.384E-04    0.487E-05
DAV:  15    -0.102473585012E+03   -0.75345E-06   -0.24482E-09   108   0.206E-04
  17 F= -.10247359E+03 E0= -.10247359E+03  d E =-.521171E-10
       N       E                     dE             d eps       ncg     rms          rms(c)
DAV:   1    -0.102472719171E+03    0.86509E-03   -0.17370E-01    96   0.131E+00    0.171E-01
DAV:   2    -0.102473839013E+03   -0.11198E-02   -0.11532E-02   132   0.381E-01    0.116E-01
DAV:   3    -0.102473789176E+03    0.49837E-04   -0.25612E-04   132   0.660E-02    0.632E-02
DAV:   4    -0.102473772174E+03    0.17003E-04   -0.14421E-04   132   0.450E-02    0.109E-02
DAV:   5    -0.102473769305E+03    0.28685E-05   -0.23579E-05   132   0.184E-02    0.792E-03
DAV:   6    -0.102473773760E+03   -0.44552E-05   -0.66877E-06   132   0.896E-03    0.459E-03
DAV:   7    -0.102473790171E+03   -0.16411E-04   -0.27337E-06   132   0.598E-03    0.173E-03
DAV:   8    -0.102473808522E+03   -0.18350E-04   -0.13867E-06    96   0.399E-03    0.103E-03
DAV:   9    -0.102473826553E+03   -0.18031E-04   -0.16260E-06   108   0.322E-03    0.968E-04
DAV:  10    -0.102473840169E+03   -0.13616E-04   -0.11552E-06    96   0.232E-03    0.400E-04
DAV:  11    -0.102473844688E+03   -0.45196E-05   -0.16643E-07   108   0.997E-04    0.219E-04
DAV:  12    -0.102473849110E+03   -0.44217E-05   -0.26878E-07    84   0.104E-03    0.138E-04
DAV:  13    -0.102473850244E+03   -0.11341E-05   -0.34547E-08   108   0.458E-04    0.976E-05
DAV:  14    -0.102473851093E+03   -0.84846E-06   -0.12321E-08   108   0.310E-04
  18 F= -.10247385E+03 E0= -.10247385E+03  d E =-.556830E-10
       N       E                     dE             d eps       ncg     rms          rms(c)
DAV:   1    -0.102472521205E+03    0.13290E-02   -0.33315E-01    96   0.178E+00    0.211E-01
DAV:   2    -0.102474452097E+03   -0.19309E-02   -0.19722E-02   132   0.491E-01    0.141E-01
DAV:   3    -0.102474400187E+03    0.51910E-04   -0.45956E-04   132   0.870E-02    0.725E-02
DAV:   4    -0.102474395661E+03    0.45256E-05   -0.19278E-04   132   0.549E-02    0.139E-02
DAV:   5    -0.102474385214E+03    0.10447E-04   -0.39119E-05   132   0.245E-02    0.943E-03
DAV:   6    -0.102474386814E+03   -0.15997E-05   -0.84683E-06   132   0.963E-03    0.581E-03
DAV:   7    -0.102474399053E+03   -0.12239E-04   -0.17343E-06   120   0.639E-03    0.215E-03
DAV:   8    -0.102474415205E+03   -0.16152E-04   -0.25637E-06   132   0.643E-03    0.184E-03
DAV:   9    -0.102474430793E+03   -0.15588E-04   -0.10930E-06   108   0.383E-03    0.133E-03
DAV:  10    -0.102474442928E+03   -0.12135E-04   -0.49356E-07   108   0.190E-03    0.790E-04
DAV:  11    -0.102474455097E+03   -0.12169E-04   -0.54160E-07    96   0.162E-03    0.315E-04
DAV:  12    -0.102474461078E+03   -0.59817E-05   -0.17430E-07   108   0.934E-04    0.243E-04
DAV:  13    -0.102474467172E+03   -0.60938E-05   -0.17027E-07    84   0.850E-04    0.142E-04
DAV:  14    -0.102474469031E+03   -0.18588E-05   -0.30771E-08   108   0.436E-04    0.101E-04
DAV:  15    -0.102474470520E+03   -0.14885E-05   -0.14531E-08    84   0.333E-04    0.794E-05
DAV:  16    -0.102474471139E+03   -0.61965E-06   -0.19171E-09    96   0.206E-04
  19 F= -.10247447E+03 E0= -.10247447E+03  d E =-.592223E-10
       N       E                     dE             d eps       ncg     rms          rms(c)
DAV:   1    -0.102472389508E+03    0.20810E-02   -0.16715E-01    96   0.130E+00    0.160E-01
DAV:   2    -0.102473676390E+03   -0.12869E-02   -0.13369E-02   132   0.405E-01    0.111E-01
DAV:   3    -0.102473616725E+03    0.59664E-04   -0.32551E-04   144   0.736E-02    0.626E-02
DAV:   4    -0.102473599878E+03    0.16847E-04   -0.15651E-04   120   0.497E-02    0.108E-02
DAV:   5    -0.102473593734E+03    0.61444E-05   -0.36473E-05   132   0.225E-02    0.858E-03
DAV:   6    -0.102473594249E+03   -0.51521E-06   -0.50318E-06   120   0.776E-03
  20 F= -.10247359E+03 E0= -.10247359E+03  d E =-.809682E-10
       N       E                     dE             d eps       ncg     rms          rms(c)
DAV:   1    -0.102471302078E+03    0.22917E-02   -0.33073E-01    96   0.176E+00    0.261E-01
DAV:   2    -0.102473664501E+03   -0.23624E-02   -0.25094E-02   132   0.524E-01    0.164E-01
DAV:   3    -0.102473515368E+03    0.14913E-03   -0.66272E-04   132   0.106E-01    0.870E-02
DAV:   4    -0.102473534424E+03   -0.19055E-04   -0.42370E-04   120   0.747E-02    0.172E-02
DAV:   5    -0.102473528090E+03    0.63333E-05   -0.73965E-05   132   0.315E-02    0.126E-02
DAV:   6    -0.102473527194E+03    0.89601E-06   -0.10510E-05   108   0.947E-03    0.847E-03
DAV:   7    -0.102473533474E+03   -0.62796E-05   -0.91475E-07    96   0.371E-03    0.352E-03
DAV:   8    -0.102473544264E+03   -0.10790E-04   -0.17427E-06   120   0.488E-03    0.126E-03
DAV:   9    -0.102473553300E+03   -0.90357E-05   -0.86774E-07   108   0.268E-03    0.139E-03
DAV:  10    -0.102473567308E+03   -0.14008E-04   -0.71309E-07    96   0.196E-03    0.739E-04
DAV:  11    -0.102473571579E+03   -0.42709E-05   -0.14441E-07   108   0.103E-03    0.521E-04
DAV:  12    -0.102473577508E+03   -0.59285E-05   -0.18375E-07    84   0.981E-04    0.276E-04
DAV:  13    -0.102473580287E+03   -0.27791E-05   -0.74138E-08    96   0.588E-04    0.176E-04
DAV:  14    -0.102473582322E+03   -0.20356E-05   -0.24639E-08   108   0.399E-04    0.100E-04
DAV:  15    -0.102473583263E+03   -0.94081E-06   -0.12380E-08    84   0.276E-04
  21 F= -.10247358E+03 E0= -.10247358E+03  d E =-.463561E-10
       N       E                     dE             d eps       ncg     rms          rms(c)
DAV:   1    -0.102473753446E+03   -0.17112E-03   -0.16905E-01    96   0.124E+00    0.193E-01
DAV:   2    -0.102474732366E+03   -0.97892E-03   -0.10673E-02   120   0.355E-01    0.106E-01
DAV:   3    -0.102474666757E+03    0.65609E-04   -0.32251E-04   132   0.717E-02    0.585E-02
DAV:   4    -0.102474666166E+03    0.59039E-06   -0.15457E-04   108   0.450E-02    0.133E-02
DAV:   5    -0.102474662089E+03    0.40771E-05   -0.24089E-05   132   0.181E-02    0.854E-03
DAV:   6    -0.102474662858E+03   -0.76823E-06   -0.37650E-06   132   0.619E-03
  22 F= -.10247466E+03 E0= -.10247466E+03  d E =-.542367E-11
       N       E                     dE             d eps       ncg     rms          rms(c)
DAV:   1    -0.102473484700E+03    0.11774E-02   -0.33231E-01    96   0.166E+00    0.229E-01
DAV:   2    -0.102474872940E+03   -0.13882E-02   -0.15067E-02   132   0.415E-01    0.109E-01
DAV:   3    -0.102474843315E+03    0.29625E-04   -0.53610E-04   120   0.881E-02    0.554E-02
DAV:   4    -0.102474868198E+03   -0.24882E-04   -0.13118E-04   120   0.431E-02    0.160E-02
DAV:   5    -0.102474867787E+03    0.41081E-06   -0.22751E-05   132   0.189E-02    0.849E-03
DAV:   6    -0.102474868741E+03   -0.95447E-06   -0.57766E-06   108   0.816E-03
  23 F= -.10247487E+03 E0= -.10247487E+03  d E =-.469276E-10
       N       E                     dE             d eps       ncg     rms          rms(c)
DAV:   1    -0.102473891962E+03    0.97583E-03   -0.16791E-01    96   0.121E+00    0.183E-01
DAV:   2    -0.102474607370E+03   -0.71541E-03   -0.79467E-03   132   0.302E-01    0.799E-02
DAV:   3    -0.102474586832E+03    0.20537E-04   -0.28671E-04   120   0.634E-02    0.423E-02
DAV:   4    -0.102474599619E+03   -0.12787E-04   -0.72439E-05   120   0.320E-02    0.121E-02
DAV:   5    -0.102474599558E+03    0.60742E-07   -0.14156E-05   132   0.146E-02    0.699E-03
DAV:   6    -0.102474599907E+03   -0.34818E-06   -0.27371E-06   132   0.580E-03
  24 F= -.10247460E+03 E0= -.10247460E+03  d E =-.516846E-10
       N       E                     dE             d eps       ncg     rms          rms(c)
DAV:   1    -0.102472911487E+03    0.16881E-02   -0.33532E-01    96   0.170E+00    0.277E-01
DAV:   2    -0.102474342598E+03   -0.14311E-02   -0.16282E-02   120   0.447E-01    0.124E-01
DAV:   3    -0.102474278423E+03    0.64175E-04   -0.55607E-04   132   0.895E-02    0.708E-02
DAV:   4    -0.102474291096E+03   -0.12672E-04   -0.17891E-04   108   0.499E-02    0.187E-02
DAV:   5    -0.102474287303E+03    0.37924E-05   -0.32056E-05   132   0.213E-02    0.105E-02
DAV:   6    -0.102474286686E+03    0.61670E-06   -0.49113E-06   132   0.776E-03
  25 F= -.10247429E+03 E0= -.10247429E+03  d E =-.778673E-10
       N       E                     dE             d eps       ncg     rms          rms(c)
DAV:   1    -0.102472255923E+03    0.20314E-02   -0.16837E-01    96   0.129E+00    0.182E-01
DAV:   2    -0.102473484252E+03   -0.12283E-02   -0.12785E-02   120   0.391E-01    0.106E-01
DAV:   3    -0.102473433904E+03    0.50348E-04   -0.33396E-04   144   0.721E-02    0.598E-02
DAV:   4    -0.102473437950E+03   -0.40454E-05   -0.14401E-04   120   0.446E-02    0.116E-02
DAV:   5    -0.102473433164E+03    0.47857E-05   -0.27644E-05   132   0.195E-02    0.806E-03
DAV:   6    -0.102473432043E+03    0.11207E-05   -0.42536E-06   132   0.709E-03    0.525E-03
DAV:   7    -0.102473436682E+03   -0.46384E-05   -0.13055E-06    96   0.482E-03    0.172E-03
DAV:   8    -0.102473443113E+03   -0.64309E-05   -0.12259E-06   120   0.425E-03    0.123E-03
DAV:   9    -0.102473450535E+03   -0.74225E-05   -0.49256E-07   108   0.242E-03    0.992E-04
DAV:  10    -0.102473456874E+03   -0.63384E-05   -0.27816E-07    84   0.134E-03    0.537E-04
DAV:  11    -0.102473461598E+03   -0.47250E-05   -0.15490E-07   108   0.916E-04    0.256E-04
DAV:  12    -0.102473465767E+03   -0.41680E-05   -0.12205E-07    84   0.737E-04    0.117E-04
DAV:  13    -0.102473467775E+03   -0.20087E-05   -0.33827E-08   108   0.435E-04    0.131E-04
DAV:  14    -0.102473469023E+03   -0.12479E-05   -0.11225E-08    84   0.287E-04    0.462E-05
DAV:  15    -0.102473469503E+03   -0.47968E-06   -0.11402E-09   108   0.181E-04
  26 F= -.10247347E+03 E0= -.10247347E+03  d E =-.494587E-10
       N       E                     dE             d eps       ncg     rms          rms(c)
DAV:   1    -0.102471095999E+03    0.23730E-02   -0.34804E-01    96   0.177E+00    0.224E-01
DAV:   2    -0.102473336018E+03   -0.22400E-02   -0.22851E-02   120   0.515E-01    0.163E-01
DAV:   3    -0.102473253865E+03    0.82152E-04   -0.48414E-04   144   0.879E-02    0.899E-02
DAV:   4    -0.102473223727E+03    0.30138E-04   -0.26904E-04   132   0.591E-02    0.149E-02
DAV:   5    -0.102473222386E+03    0.13417E-05   -0.45317E-05   132   0.242E-02    0.103E-02
DAV:   6    -0.102473234864E+03   -0.12478E-04   -0.15267E-05   120   0.122E-02    0.610E-03
DAV:   7    -0.102473264994E+03   -0.30130E-04   -0.48146E-06   132   0.720E-03    0.245E-03
DAV:   8    -0.102473303279E+03   -0.38285E-04   -0.36947E-06   120   0.557E-03    0.129E-03
DAV:   9    -0.102473336106E+03   -0.32827E-04   -0.39540E-06   120   0.471E-03    0.142E-03
DAV:  10    -0.102473359042E+03   -0.22936E-04   -0.20215E-06   108   0.323E-03    0.531E-04
DAV:  11    -0.102473365549E+03   -0.65071E-05   -0.27864E-07   108   0.127E-03    0.340E-04
DAV:  12    -0.102473371581E+03   -0.60320E-05   -0.27773E-07    96   0.108E-03    0.173E-04
DAV:  13    -0.102473373998E+03   -0.24177E-05   -0.70647E-08   108   0.582E-04    0.108E-04
DAV:  14    -0.102473375618E+03   -0.16192E-05   -0.26336E-08    96   0.401E-04    0.519E-05
DAV:  15    -0.102473376164E+03   -0.54650E-06   -0.19329E-09   108   0.207E-04
  27 F= -.10247338E+03 E0= -.10247338E+03  d E =-.640667E-10
       N       E                     dE             d eps       ncg     rms          rms(c)
DAV:   1    -0.102473709305E+03   -0.33369E-03   -0.17216E-01    96   0.122E+00    0.152E-01
DAV:   2    -0.102474726086E+03   -0.10168E-02   -0.10350E-02   120   0.352E-01    0.103E-01
DAV:   3    -0.102474697298E+03    0.28788E-04   -0.21879E-04   132   0.617E-02    0.545E-02
DAV:   4    -0.102474697956E+03   -0.65725E-06   -0.12699E-04   120   0.436E-02    0.105E-02
DAV:   5    -0.102474693218E+03    0.47379E-05   -0.27151E-05   144   0.196E-02    0.785E-03
DAV:   6    -0.102474692870E+03    0.34811E-06   -0.55094E-06   108   0.736E-03
  28 F= -.10247469E+03 E0= -.10247469E+03  d E =-.838704E-10
       N       E                     dE             d eps       ncg     rms          rms(c)
DAV:   1    -0.102473119601E+03    0.15736E-02   -0.33986E-01    96   0.166E+00    0.193E-01
DAV:   2    -0.102474672784E+03   -0.15532E-02   -0.15505E-02   132   0.405E-01    0.112E-01
DAV:   3    -0.102474701916E+03   -0.29133E-04   -0.43037E-04   120   0.831E-02    0.544E-02
DAV:   4    -0.102474734164E+03   -0.32248E-04   -0.14170E-04   132   0.500E-02    0.133E-02
DAV:   5    -0.102474733601E+03    0.56324E-06   -0.31947E-05   132   0.209E-02    0.962E-03
DAV:   6    -0.102474735118E+03   -0.15168E-05   -0.62405E-06   132   0.801E-03    0.482E-03
DAV:   7    -0.102474738922E+03   -0.38039E-05   -0.84129E-07   108   0.396E-03    0.169E-03
DAV:   8    -0.102474744303E+03   -0.53817E-05   -0.68032E-07    96   0.339E-03    0.101E-03
DAV:   9    -0.102474753602E+03   -0.92991E-05   -0.68469E-07    84   0.343E-03    0.381E-04
DAV:  10    -0.102474757718E+03   -0.41160E-05   -0.40783E-07   108   0.203E-03    0.415E-04
DAV:  11    -0.102474758845E+03   -0.11269E-05   -0.41038E-08   120   0.800E-04    0.380E-04
DAV:  12    -0.102474761718E+03   -0.28725E-05   -0.51111E-08   108   0.672E-04    0.171E-04
DAV:  13    -0.102474764990E+03   -0.32725E-05   -0.13110E-07    84   0.785E-04    0.225E-04
DAV:  14    -0.102474765790E+03   -0.79967E-06   -0.10693E-08   108   0.443E-04
  29 F= -.10247477E+03 E0= -.10247477E+03  d E =-.642804E-10
       N       E                     dE             d eps       ncg     rms          rms(c)
DAV:   1    -0.102472096425E+03    0.26686E-02   -0.17201E-01    96   0.122E+00    0.148E-01
DAV:   2    -0.102473028356E+03   -0.93193E-03   -0.94673E-03   132   0.326E-01    0.935E-02
DAV:   3    -0.102473012899E+03    0.15457E-04   -0.22470E-04   132   0.623E-02    0.459E-02
DAV:   4    -0.102473021353E+03   -0.84539E-05   -0.11191E-04   132   0.416E-02    0.104E-02
DAV:   5    -0.102473017612E+03    0.37416E-05   -0.23717E-05   132   0.182E-02    0.665E-03
DAV:   6    -0.102473017675E+03   -0.63055E-07   -0.47380E-06   132   0.679E-03
  30 F= -.10247302E+03 E0= -.10247302E+03  d E =-.840239E-10
       N       E                     dE             d eps       ncg     rms          rms(c)
DAV:   1    -0.102470582704E+03    0.24349E-02   -0.35742E-01    96   0.177E+00    0.247E-01
DAV:   2    -0.102473118656E+03   -0.25360E-02   -0.25383E-02   132   0.549E-01    0.176E-01
DAV:   3    -0.102473017897E+03    0.10076E-03   -0.56445E-04   132   0.100E-01    0.915E-02
DAV:   4    -0.102473023200E+03   -0.53037E-05   -0.40187E-04   132   0.724E-02    0.169E-02
DAV:   5    -0.102473009550E+03    0.13651E-04   -0.85101E-05   144   0.324E-02    0.113E-02
DAV:   6    -0.102473013554E+03   -0.40049E-05   -0.14427E-05   120   0.101E-02    0.647E-03
DAV:   7    -0.102473033790E+03   -0.20236E-04   -0.13595E-06   120   0.368E-03    0.307E-03
DAV:   8    -0.102473061408E+03   -0.27617E-04   -0.41706E-06   120   0.561E-03    0.154E-03
DAV:   9    -0.102473076482E+03   -0.15074E-04   -0.15725E-06   120   0.320E-03    0.158E-03
DAV:  10    -0.102473094122E+03   -0.17640E-04   -0.13865E-06    96   0.267E-03    0.613E-04
DAV:  11    -0.102473099740E+03   -0.56185E-05   -0.29268E-07   108   0.137E-03    0.357E-04
DAV:  12    -0.102473105949E+03   -0.62089E-05   -0.28573E-07    84   0.115E-03    0.158E-04
DAV:  13    -0.102473108016E+03   -0.20670E-05   -0.84969E-08   108   0.603E-04    0.178E-04
DAV:  14    -0.102473109746E+03   -0.17301E-05   -0.35016E-08    96   0.463E-04    0.112E-04
DAV:  15    -0.102473110358E+03   -0.61188E-06   -0.11396E-08   108   0.281E-04
  31 F= -.10247311E+03 E0= -.10247311E+03  d E =-.708473E-10
       N       E                     dE             d eps       ncg     rms          rms(c)
DAV:   1    -0.102472729607E+03    0.38014E-03   -0.17167E-01    96   0.131E+00    0.164E-01
DAV:   2    -0.102474065538E+03   -0.13359E-02   -0.13888E-02   132   0.414E-01    0.114E-01
DAV:   3    -0.102474008164E+03    0.57374E-04   -0.33284E-04   156   0.746E-02    0.666E-02
DAV:   4    -0.102473992942E+03    0.15222E-04   -0.18382E-04   132   0.564E-02    0.112E-02
DAV:   5    -0.102473988291E+03    0.46508E-05   -0.61503E-05   132   0.285E-02    0.942E-03
DAV:   6    -0.102473986186E+03    0.21047E-05   -0.61279E-06   132   0.824E-03    0.652E-03
DAV:   7    -0.102473992814E+03   -0.66273E-05   -0.23207E-06   132   0.601E-03    0.271E-03
DAV:   8    -0.102474007365E+03   -0.14551E-04   -0.19955E-06   132   0.570E-03    0.136E-03
DAV:   9    -0.102474021015E+03   -0.13650E-04   -0.10469E-06   108   0.361E-03    0.150E-03
DAV:  10    -0.102474030902E+03   -0.98876E-05   -0.45498E-07   108   0.188E-03    0.785E-04
DAV:  11    -0.102474040576E+03   -0.96732E-05   -0.48016E-07   108   0.151E-03    0.243E-04
DAV:  12    -0.102474043976E+03   -0.34005E-05   -0.10076E-07   108   0.754E-04    0.202E-04
DAV:  13    -0.102474048430E+03   -0.44534E-05   -0.17254E-07   108   0.816E-04    0.117E-04
DAV:  14    -0.102474049304E+03   -0.87425E-06   -0.16879E-08   108   0.341E-04
  32 F= -.10247405E+03 E0= -.10247405E+03  d E =-.565055E-10
       N       E                     dE             d eps       ncg     rms          rms(c)
DAV:   1    -0.102472782825E+03    0.12656E-02   -0.33430E-01    96   0.174E+00    0.227E-01
DAV:   2    -0.102474635021E+03   -0.18522E-02   -0.18865E-02   132   0.487E-01    0.135E-01
DAV:   3    -0.102474590396E+03    0.44625E-04   -0.47186E-04   132   0.896E-02    0.713E-02
DAV:   4    -0.102474601513E+03   -0.11117E-04   -0.21997E-04   132   0.602E-02    0.147E-02
DAV:   5    -0.102474594075E+03    0.74375E-05   -0.54450E-05   132   0.282E-02    0.101E-02
DAV:   6    -0.102474594236E+03   -0.16075E-06   -0.84131E-06   132   0.929E-03
  33 F= -.10247459E+03 E0= -.10247459E+03  d E =-.868290E-10
       N       E                     dE             d eps       ncg     rms          rms(c)
DAV:   1    -0.102472613468E+03    0.19806E-02   -0.17204E-01    96   0.122E+00    0.168E-01
DAV:   2    -0.102473367600E+03   -0.75413E-03   -0.76972E-03   132   0.293E-01    0.827E-02
DAV:   3    -0.102473369897E+03   -0.22965E-05   -0.22983E-04   132   0.589E-02    0.437E-02
DAV:   4    -0.102473393838E+03   -0.23941E-04   -0.75818E-05   132   0.359E-02    0.102E-02
DAV:   5    -0.102473397790E+03   -0.39523E-05   -0.19590E-05   132   0.166E-02    0.742E-03
DAV:   6    -0.102473400744E+03   -0.29539E-05   -0.27993E-06   132   0.538E-03    0.465E-03
DAV:   7    -0.102473406046E+03   -0.53026E-05   -0.37078E-07   108   0.243E-03    0.180E-03
DAV:   8    -0.102473411746E+03   -0.56995E-05   -0.51186E-07   108   0.259E-03    0.792E-04
DAV:   9    -0.102473419074E+03   -0.73279E-05   -0.35436E-07    96   0.234E-03    0.456E-04
DAV:  10    -0.102473422868E+03   -0.37945E-05   -0.23805E-07   108   0.152E-03    0.522E-04
DAV:  11    -0.102473424367E+03   -0.14984E-05   -0.41504E-08   120   0.793E-04    0.366E-04
DAV:  12    -0.102473426566E+03   -0.21995E-05   -0.42182E-08   108   0.567E-04    0.130E-04
DAV:  13    -0.102473428140E+03   -0.15742E-05   -0.27764E-08   108   0.393E-04    0.139E-04
DAV:  14    -0.102473429510E+03   -0.13696E-05   -0.19863E-08   108   0.313E-04    0.746E-05
DAV:  15    -0.102473429988E+03   -0.47826E-06   -0.78824E-10   108   0.180E-04
  34 F= -.10247343E+03 E0= -.10247343E+03  d E =-.524169E-10
       N       E                     dE             d eps       ncg     rms          rms(c)
DAV:   1    -0.102471503952E+03    0.19256E-02   -0.34843E-01    96   0.183E+00    0.262E-01
DAV:   2    -0.102473787742E+03   -0.22838E-02   -0.23422E-02   132   0.545E-01    0.163E-01
DAV:   3    -0.102473691306E+03    0.96436E-04   -0.52835E-04   144   0.949E-02    0.938E-02
DAV:   4    -0.102473681984E+03    0.93217E-05   -0.33401E-04   132   0.716E-02    0.159E-02
DAV:   5    -0.102473676159E+03    0.58256E-05   -0.82824E-05   132   0.335E-02    0.132E-02
DAV:   6    -0.102473679394E+03   -0.32354E-05   -0.14150E-05   132   0.120E-02    0.878E-03
DAV:   7    -0.102473697999E+03   -0.18605E-04   -0.36208E-06   132   0.669E-03    0.345E-03
DAV:   8    -0.102473721904E+03   -0.23906E-04   -0.20806E-06   120   0.446E-03    0.116E-03
DAV:   9    -0.102473745487E+03   -0.23583E-04   -0.23937E-06   120   0.386E-03    0.149E-03
DAV:  10    -0.102473764907E+03   -0.19420E-04   -0.18612E-06   108   0.308E-03    0.782E-04
DAV:  11    -0.102473772604E+03   -0.76965E-05   -0.39397E-07   108   0.153E-03    0.239E-04
DAV:  12    -0.102473777504E+03   -0.49006E-05   -0.25320E-07    96   0.102E-03    0.240E-04
DAV:  13    -0.102473779507E+03   -0.20032E-05   -0.54090E-08   108   0.528E-04    0.183E-04
DAV:  14    -0.102473780777E+03   -0.12702E-05   -0.24335E-08   108   0.389E-04    0.859E-05
DAV:  15    -0.102473781269E+03   -0.49180E-06   -0.18661E-09   108   0.214E-04
  35 F= -.10247378E+03 E0= -.10247378E+03  d E =-.583339E-10
       N       E                     dE             d eps       ncg     rms          rms(c)
DAV:   1    -0.102472205853E+03    0.15749E-02   -0.17166E-01    96   0.131E+00    0.184E-01
DAV:   2    -0.102473238682E+03   -0.10328E-02   -0.10713E-02   120   0.365E-01    0.110E-01
DAV:   3    -0.102473192694E+03    0.45988E-04   -0.25206E-04   132   0.635E-02    0.594E-02
DAV:   4    -0.102473181558E+03    0.11136E-04   -0.12275E-04   132   0.415E-02    0.111E-02
DAV:   5    -0.102473175141E+03    0.64168E-05   -0.22262E-05   132   0.178E-02    0.763E-03
DAV:   6    -0.102473174782E+03    0.35832E-06   -0.43710E-06   132   0.749E-03
  36 F= -.10247317E+03 E0= -.10247317E+03  d E =-.631635E-10
       N       E                     dE             d eps       ncg     rms          rms(c)
DAV:   1    -0.102471029592E+03    0.21455E-02   -0.35587E-01    96   0.181E+00    0.254E-01
DAV:   2    -0.102473259156E+03   -0.22296E-02   -0.22401E-02   132   0.531E-01    0.168E-01
DAV:   3    -0.102473200232E+03    0.58924E-04   -0.54313E-04   144   0.971E-02    0.890E-02
DAV:   4    -0.102473192769E+03    0.74633E-05   -0.33068E-04   120   0.664E-02    0.168E-02
DAV:   5    -0.102473182920E+03    0.98489E-05   -0.59692E-05   132   0.283E-02    0.120E-02
DAV:   6    -0.102473186051E+03   -0.31309E-05   -0.17356E-05   132   0.122E-02    0.675E-03
DAV:   7    -0.102473205173E+03   -0.19122E-04   -0.30532E-06   132   0.618E-03    0.268E-03
DAV:   8    -0.102473231633E+03   -0.26460E-04   -0.27982E-06   132   0.495E-03    0.111E-03
DAV:   9    -0.102473254045E+03   -0.22412E-04   -0.25095E-06   120   0.382E-03    0.142E-03
DAV:  10    -0.102473273134E+03   -0.19089E-04   -0.16755E-06   108   0.297E-03    0.426E-04
DAV:  11    -0.102473279019E+03   -0.58854E-05   -0.27686E-07   108   0.128E-03    0.302E-04
DAV:  12    -0.102473284500E+03   -0.54805E-05   -0.28416E-07    96   0.108E-03    0.191E-04
DAV:  13    -0.102473286111E+03   -0.16114E-05   -0.52304E-08   108   0.510E-04    0.143E-04
DAV:  14    -0.102473287564E+03   -0.14531E-05   -0.28815E-08   108   0.427E-04    0.623E-05
DAV:  15    -0.102473288144E+03   -0.58042E-06   -0.64835E-09   108   0.246E-04
  37 F= -.10247329E+03 E0= -.10247329E+03  d E =-.663524E-10
       N       E                     dE             d eps       ncg     rms          rms(c)
DAV:   1    -0.102472158522E+03    0.11290E-02   -0.18578E-01    96   0.134E+00    0.168E-01
DAV:   2    -0.102473417631E+03   -0.12591E-02   -0.14197E-02   144   0.403E-01    0.110E-01
DAV:   3    -0.102473359765E+03    0.57866E-04   -0.27130E-04   144   0.628E-02    0.654E-02
DAV:   4    -0.102473327763E+03    0.32002E-04   -0.12629E-04   132   0.440E-02    0.100E-02
DAV:   5    -0.102473318541E+03    0.92220E-05   -0.30776E-05   132   0.203E-02    0.726E-03
DAV:   6    -0.102473316464E+03    0.20769E-05   -0.65193E-06   132   0.846E-03    0.458E-03
DAV:   7    -0.102473327136E+03   -0.10672E-04   -0.25295E-06   132   0.561E-03    0.179E-03
DAV:   8    -0.102473344016E+03   -0.16880E-04   -0.12713E-06   120   0.392E-03    0.113E-03
DAV:   9    -0.102473360390E+03   -0.16374E-04   -0.92191E-07   108   0.275E-03    0.108E-03
DAV:  10    -0.102473377614E+03   -0.17223E-04   -0.92525E-07   108   0.217E-03    0.323E-04
DAV:  11    -0.102473383958E+03   -0.63445E-05   -0.20193E-07   108   0.999E-04    0.297E-04
DAV:  12    -0.102473390490E+03   -0.65324E-05   -0.15534E-07   108   0.893E-04    0.126E-04
DAV:  13    -0.102473392492E+03   -0.20019E-05   -0.44820E-08   108   0.484E-04    0.119E-04
DAV:  14    -0.102473394108E+03   -0.16155E-05   -0.11444E-08   108   0.340E-04    0.732E-05
DAV:  15    -0.102473395199E+03   -0.10911E-05   -0.10798E-08   108   0.272E-04    0.426E-05
DAV:  16    -0.102473395687E+03   -0.48800E-06    0.24022E-09   108   0.160E-04
  38 F= -.10247340E+03 E0= -.10247340E+03  d E =-.620650E-10
       N       E                     dE             d eps       ncg     rms          rms(c)
DAV:   1    -0.102472284120E+03    0.11111E-02   -0.40634E-01   120   0.176E+00    0.217E-01
DAV:   2    -0.102473759792E+03   -0.14757E-02   -0.18327E-02   132   0.414E-01    0.125E-01
DAV:   3    -0.102473648603E+03    0.11119E-03   -0.32053E-04   132   0.626E-02    0.650E-02
DAV:   4    -0.102473593102E+03    0.55501E-04   -0.12079E-04   132   0.423E-02    0.112E-02
DAV:   5    -0.102473589172E+03    0.39296E-05   -0.25334E-05   132   0.187E-02    0.794E-03
DAV:   6    -0.102473601968E+03   -0.12796E-04   -0.10433E-05   132   0.884E-03    0.443E-03
DAV:   7    -0.102473625230E+03   -0.23262E-04   -0.15888E-06   120   0.394E-03    0.223E-03
DAV:   8    -0.102473663631E+03   -0.38401E-04   -0.43453E-06   120   0.454E-03    0.133E-03
DAV:   9    -0.102473685319E+03   -0.21688E-04   -0.15402E-06   120   0.284E-03    0.937E-04
DAV:  10    -0.102473706528E+03   -0.21209E-04   -0.17834E-06   120   0.266E-03    0.342E-04
DAV:  11    -0.102473714613E+03   -0.80844E-05   -0.31342E-07   108   0.130E-03    0.353E-04
DAV:  12    -0.102473721208E+03   -0.65948E-05   -0.32521E-07    96   0.114E-03    0.141E-04
DAV:  13    -0.102473722743E+03   -0.15350E-05   -0.46176E-08   108   0.485E-04    0.105E-04
DAV:  14    -0.102473724153E+03   -0.14107E-05   -0.15417E-08    96   0.351E-04    0.575E-05
DAV:  15    -0.102473724714E+03   -0.56037E-06   -0.32563E-09   108   0.216E-04
  39 F= -.10247372E+03 E0= -.10247372E+03  d E =-.585104E-10
       N       E                     dE             d eps       ncg     rms          rms(c)
DAV:   1    -0.102472879736E+03    0.84442E-03   -0.20393E-01   108   0.127E+00    0.149E-01
DAV:   2    -0.102473607507E+03   -0.72777E-03   -0.89468E-03   120   0.284E-01    0.789E-02
DAV:   3    -0.102473563024E+03    0.44483E-04   -0.15793E-04   132   0.431E-02    0.419E-02
DAV:   4    -0.102473535139E+03    0.27886E-04   -0.48069E-05   132   0.272E-02    0.827E-03
DAV:   5    -0.102473528683E+03    0.64560E-05   -0.11005E-05   132   0.129E-02    0.531E-03
DAV:   6    -0.102473529607E+03   -0.92476E-06   -0.35813E-06   132   0.611E-03
  40 F= -.10247353E+03 E0= -.10247353E+03  d E =-.515755E-11
       N       E                     dE             d eps       ncg     rms          rms(c)
DAV:   1    -0.102472761047E+03    0.76764E-03   -0.40336E-01    96   0.171E+00    0.216E-01
DAV:   2    -0.102474300518E+03   -0.15395E-02   -0.18574E-02   132   0.401E-01    0.116E-01
DAV:   3    -0.102474224766E+03    0.75751E-04   -0.31347E-04   132   0.605E-02    0.616E-02
DAV:   4    -0.102474166146E+03    0.58620E-04   -0.98318E-05   132   0.365E-02    0.117E-02
DAV:   5    -0.102474158910E+03    0.72358E-05   -0.16522E-05   132   0.162E-02    0.678E-03
DAV:   6    -0.102474171834E+03   -0.12924E-04   -0.83612E-06   132   0.913E-03    0.344E-03
DAV:   7    -0.102474194466E+03   -0.22632E-04   -0.29586E-06   132   0.551E-03    0.201E-03
DAV:   8    -0.102474222471E+03   -0.28005E-04   -0.23993E-06   120   0.383E-03    0.101E-03
DAV:   9    -0.102474242240E+03   -0.19769E-04   -0.17663E-06   120   0.295E-03    0.811E-04
DAV:  10    -0.102474259824E+03   -0.17584E-04   -0.15791E-06   108   0.243E-03    0.334E-04
DAV:  11    -0.102474266228E+03   -0.64036E-05   -0.29370E-07   108   0.117E-03    0.260E-04
DAV:  12    -0.102474271537E+03   -0.53098E-05   -0.29282E-07    96   0.102E-03    0.132E-04
DAV:  13    -0.102474272891E+03   -0.13533E-05   -0.51274E-08   108   0.472E-04    0.805E-05
DAV:  14    -0.102474273810E+03   -0.91912E-06   -0.11535E-08   108   0.306E-04
  41 F= -.10247427E+03 E0= -.10247427E+03  d E =-.455854E-10
       N       E                     dE             d eps       ncg     rms          rms(c)
DAV:   1    -0.102473900509E+03    0.37238E-03   -0.20515E-01    96   0.123E+00    0.145E-01
DAV:   2    -0.102474623054E+03   -0.72255E-03   -0.87081E-03   108   0.270E-01    0.705E-02
DAV:   3    -0.102474598003E+03    0.25051E-04   -0.18025E-04   144   0.477E-02    0.377E-02
DAV:   4    -0.102474584714E+03    0.13289E-04   -0.46351E-05   120   0.306E-02    0.792E-03
DAV:   5    -0.102474582174E+03    0.25396E-05   -0.15497E-05   132   0.148E-02    0.629E-03
DAV:   6    -0.102474582457E+03   -0.28300E-06   -0.23961E-06   132   0.494E-03
  42 F= -.10247458E+03 E0= -.10247458E+03  d E =-.531427E-10
       N       E                     dE             d eps       ncg     rms          rms(c)
DAV:   1    -0.102473679480E+03    0.90269E-03   -0.41254E-01    96   0.167E+00    0.183E-01
DAV:   2    -0.102475015293E+03   -0.13358E-02   -0.16128E-02   120   0.354E-01    0.921E-02
DAV:   3    -0.102474985789E+03    0.29504E-04   -0.35376E-04   144   0.657E-02    0.477E-02
DAV:   4    -0.102474968760E+03    0.17029E-04   -0.78079E-05   132   0.404E-02    0.102E-02
DAV:   5    -0.102474966229E+03    0.25313E-05   -0.25730E-05   132   0.195E-02    0.828E-03
DAV:   6    -0.102474968467E+03   -0.22383E-05   -0.38435E-06   132   0.637E-03    0.551E-03
DAV:   7    -0.102474975581E+03   -0.71143E-05   -0.85788E-07   108   0.406E-03    0.186E-03
DAV:   8    -0.102474985001E+03   -0.94193E-05   -0.11841E-06   120   0.369E-03    0.132E-03
DAV:   9    -0.102475001733E+03   -0.16733E-04   -0.11757E-06   120   0.359E-03    0.653E-04
DAV:  10    -0.102475009386E+03   -0.76525E-05   -0.49697E-07   108   0.216E-03    0.681E-04
DAV:  11    -0.102475012393E+03   -0.30069E-05   -0.82567E-08   108   0.967E-04    0.528E-04
DAV:  12    -0.102475019666E+03   -0.72734E-05   -0.27729E-07    96   0.118E-03    0.283E-04
DAV:  13    -0.102475021359E+03   -0.16933E-05   -0.50567E-08   108   0.541E-04    0.325E-04
DAV:  14    -0.102475023105E+03   -0.17453E-05   -0.27535E-08    96   0.431E-04    0.811E-05
DAV:  15    -0.102475024066E+03   -0.96084E-06   -0.12308E-08    96   0.294E-04
  43 F= -.10247502E+03 E0= -.10247502E+03  d E =-.606396E-11
       N       E                     dE             d eps       ncg     rms          rms(c)
DAV:   1    -0.102473739173E+03    0.12839E-02   -0.20304E-01    96   0.128E+00    0.137E-01
DAV:   2    -0.102474657124E+03   -0.91795E-03   -0.11063E-02   120   0.300E-01    0.699E-02
DAV:   3    -0.102474626910E+03    0.30214E-04   -0.24196E-04   144   0.524E-02    0.390E-02
DAV:   4    -0.102474604189E+03    0.22721E-04   -0.45647E-05   132   0.316E-02    0.871E-03
DAV:   5    -0.102474599967E+03    0.42215E-05   -0.19323E-05   132   0.168E-02    0.617E-03
DAV:   6    -0.102474601132E+03   -0.11652E-05   -0.23823E-06   132   0.548E-03    0.438E-03
DAV:   7    -0.102474606704E+03   -0.55719E-05   -0.63563E-07   108   0.333E-03    0.178E-03
DAV:   8    -0.102474615032E+03   -0.83280E-05   -0.92955E-07   108   0.339E-03    0.102E-03
DAV:   9    -0.102474628583E+03   -0.13550E-04   -0.11049E-06   108   0.298E-03    0.624E-04
DAV:  10    -0.102474633844E+03   -0.52612E-05   -0.28162E-07   108   0.159E-03    0.609E-04
DAV:  11    -0.102474637186E+03   -0.33425E-05   -0.89360E-08    96   0.839E-04    0.298E-04
DAV:  12    -0.102474640855E+03   -0.36690E-05   -0.12970E-07    96   0.779E-04    0.204E-04
DAV:  13    -0.102474642215E+03   -0.13600E-05   -0.24325E-08   108   0.397E-04    0.112E-04
DAV:  14    -0.102474643649E+03   -0.14335E-05   -0.39657E-08    84   0.403E-04    0.522E-05
DAV:  15    -0.102474644045E+03   -0.39613E-06   -0.60265E-10   108   0.187E-04
  44 F= -.10247464E+03 E0= -.10247464E+03  d E =-.579789E-11
       N       E                     dE             d eps       ncg     rms          rms(c)
DAV:   1    -0.102473334301E+03    0.13093E-02   -0.41123E-01    96   0.176E+00    0.188E-01
DAV:   2    -0.102474801232E+03   -0.14669E-02   -0.17369E-02   144   0.384E-01    0.999E-02
DAV:   3    -0.102474715625E+03    0.85607E-04   -0.31657E-04   132   0.637E-02    0.529E-02
DAV:   4    -0.102474684768E+03    0.30858E-04   -0.11666E-04   144   0.427E-02    0.120E-02
DAV:   5    -0.102474679597E+03    0.51704E-05   -0.25723E-05   132   0.190E-02    0.763E-03
DAV:   6    -0.102474684120E+03   -0.45223E-05   -0.53502E-06   132   0.776E-03    0.404E-03
DAV:   7    -0.102474694813E+03   -0.10693E-04   -0.12724E-06   120   0.397E-03    0.155E-03
DAV:   8    -0.102474706834E+03   -0.12021E-04   -0.78761E-07    96   0.287E-03    0.960E-04
DAV:   9    -0.102474722938E+03   -0.16103E-04   -0.12336E-06   120   0.284E-03    0.493E-04
DAV:  10    -0.102474734216E+03   -0.11278E-04   -0.96938E-07    96   0.221E-03    0.361E-04
DAV:  11    -0.102474738391E+03   -0.41749E-05   -0.11756E-07   108   0.107E-03    0.193E-04
DAV:  12    -0.102474741724E+03   -0.33333E-05   -0.14231E-07   108   0.806E-04    0.131E-04
DAV:  13    -0.102474743168E+03   -0.14436E-05   -0.32329E-08   108   0.418E-04    0.790E-05
DAV:  14    -0.102474744110E+03   -0.94188E-06   -0.10485E-08   108   0.280E-04
  45 F= -.10247474E+03 E0= -.10247474E+03  d E =-.468149E-10
       N       E                     dE             d eps       ncg     rms          rms(c)
DAV:   1    -0.102473569557E+03    0.11736E-02   -0.20827E-01    96   0.123E+00    0.144E-01
DAV:   2    -0.102474198023E+03   -0.62847E-03   -0.75453E-03   120   0.256E-01    0.611E-02
DAV:   3    -0.102474168047E+03    0.29975E-04   -0.17000E-04   144   0.454E-02    0.316E-02
DAV:   4    -0.102474158615E+03    0.94319E-05   -0.37740E-05   120   0.255E-02    0.855E-03
DAV:   5    -0.102474155787E+03    0.28287E-05   -0.10219E-05   132   0.128E-02    0.497E-03
DAV:   6    -0.102474155947E+03   -0.16057E-06   -0.21496E-06   120   0.526E-03
  46 F= -.10247416E+03 E0= -.10247416E+03  d E =-.427086E-11
       N       E                     dE             d eps       ncg     rms          rms(c)
DAV:   1    -0.102472484779E+03    0.16710E-02   -0.39833E-01    96   0.176E+00    0.217E-01
DAV:   2    -0.102474015009E+03   -0.15302E-02   -0.18428E-02   132   0.416E-01    0.118E-01
DAV:   3    -0.102473898462E+03    0.11655E-03   -0.32576E-04   120   0.668E-02    0.611E-02
DAV:   4    -0.102473860743E+03    0.37719E-04   -0.14672E-04   120   0.454E-02    0.126E-02
DAV:   5    -0.102473849632E+03    0.11111E-04   -0.24623E-05   132   0.189E-02    0.774E-03
DAV:   6    -0.102473849970E+03   -0.33817E-06   -0.63418E-06   120   0.784E-03
  47 F= -.10247385E+03 E0= -.10247385E+03  d E =-.583382E-10
       N       E                     dE             d eps       ncg     rms          rms(c)
DAV:   1    -0.102474346462E+03   -0.49683E-03   -0.20532E-01    96   0.127E+00    0.157E-01
DAV:   2    -0.102475034493E+03   -0.68803E-03   -0.80945E-03   132   0.278E-01    0.717E-02
DAV:   3    -0.102475008259E+03    0.26234E-04   -0.16050E-04   132   0.452E-02    0.374E-02
DAV:   4    -0.102475016271E+03   -0.80122E-05   -0.57176E-05   120   0.288E-02    0.935E-03
DAV:   5    -0.102475018256E+03   -0.19851E-05   -0.10844E-05   132   0.128E-02    0.581E-03
DAV:   6    -0.102475019744E+03   -0.14881E-05   -0.23533E-06   120   0.545E-03    0.295E-03
DAV:   7    -0.102475022038E+03   -0.22943E-05   -0.44728E-07    96   0.263E-03    0.100E-03
DAV:   8    -0.102475024040E+03   -0.20022E-05   -0.20562E-07   108   0.176E-03    0.517E-04
DAV:   9    -0.102475027099E+03   -0.30585E-05   -0.18849E-07    96   0.148E-03    0.268E-04
DAV:  10    -0.102475029407E+03   -0.23075E-05   -0.15434E-07   108   0.111E-03    0.172E-04
DAV:  11    -0.102475030615E+03   -0.12085E-05   -0.34452E-08   108   0.600E-04    0.148E-04
DAV:  12    -0.102475031770E+03   -0.11546E-05   -0.27033E-08   108   0.414E-04    0.651E-05
DAV:  13    -0.102475032452E+03   -0.68269E-06   -0.13063E-08   108   0.282E-04
  48 F= -.10247503E+03 E0= -.10247503E+03  d E =-.460830E-10
       N       E                     dE             d eps       ncg     rms          rms(c)
DAV:   1    -0.102473838935E+03    0.11928E-02   -0.42006E-01    96   0.177E+00    0.216E-01
DAV:   2    -0.102474995013E+03   -0.11561E-02   -0.14117E-02   132   0.359E-01    0.860E-02
DAV:   3    -0.102474933755E+03    0.61258E-04   -0.34221E-04   132   0.654E-02    0.444E-02
DAV:   4    -0.102474917861E+03    0.15894E-04   -0.80176E-05   132   0.371E-02    0.128E-02
DAV:   5    -0.102474915066E+03    0.27950E-05   -0.19912E-05   144   0.178E-02    0.799E-03
DAV:   6    -0.102474915920E+03   -0.85464E-06   -0.39360E-06   132   0.717E-03
  49 F= -.10247492E+03 E0= -.10247492E+03  d E =-.473809E-11
       N       E                     dE             d eps       ncg     rms          rms(c)
DAV:   1    -0.102473746243E+03    0.11688E-02   -0.20373E-01    96   0.130E+00    0.164E-01
DAV:   2    -0.102474677231E+03   -0.93099E-03   -0.10804E-02   132   0.292E-01    0.671E-02
DAV:   3    -0.102474657069E+03    0.20162E-04   -0.22312E-04   144   0.488E-02    0.364E-02
DAV:   4    -0.102474655669E+03    0.13997E-05   -0.47145E-05   132   0.246E-02    0.994E-03
DAV:   5    -0.102474654948E+03    0.72124E-06   -0.77134E-06   132   0.109E-02
  50 F= -.10247465E+03 E0= -.10247465E+03  d E =-.674245E-10
       N       E                     dE             d eps       ncg     rms          rms(c)
DAV:   1    -0.102473402767E+03    0.12529E-02   -0.41497E-01    96   0.179E+00    0.224E-01
DAV:   2    -0.102474777698E+03   -0.13749E-02   -0.16372E-02   132   0.390E-01    0.970E-02
DAV:   3    -0.102474707206E+03    0.70493E-04   -0.33695E-04   144   0.656E-02    0.514E-02
DAV:   4    -0.102474684847E+03    0.22358E-04   -0.10419E-04   132   0.403E-02    0.125E-02
DAV:   5    -0.102474677317E+03    0.75299E-05   -0.25193E-05   132   0.193E-02    0.761E-03
DAV:   6    -0.102474677112E+03    0.20559E-06   -0.44618E-06   132   0.732E-03
  51 F= -.10247468E+03 E0= -.10247468E+03  d E =-.703555E-10
       N       E                     dE             d eps       ncg     rms          rms(c)
DAV:   1    -0.102473346746E+03    0.13306E-02   -0.20096E-01    96   0.126E+00    0.152E-01
DAV:   2    -0.102474121463E+03   -0.77472E-03   -0.92687E-03   132   0.294E-01    0.857E-02
DAV:   3    -0.102474068623E+03    0.52841E-04   -0.16153E-04   132   0.483E-02    0.438E-02
DAV:   4    -0.102474055250E+03    0.13372E-04   -0.81541E-05   120   0.336E-02    0.877E-03
DAV:   5    -0.102474049181E+03    0.60689E-05   -0.13230E-05   132   0.137E-02    0.554E-03
DAV:   6    -0.102474047899E+03    0.12827E-05   -0.31171E-06   120   0.534E-03    0.307E-03
DAV:   7    -0.102474050232E+03   -0.23330E-05   -0.62199E-07   108   0.286E-03    0.113E-03
DAV:   8    -0.102474055020E+03   -0.47887E-05   -0.47852E-07    96   0.212E-03    0.752E-04
DAV:   9    -0.102474062171E+03   -0.71510E-05   -0.42828E-07   108   0.162E-03    0.478E-04
DAV:  10    -0.102474068262E+03   -0.60910E-05   -0.32763E-07   108   0.118E-03    0.272E-04
DAV:  11    -0.102474070540E+03   -0.22774E-05   -0.49439E-08   108   0.587E-04    0.172E-04
DAV:  12    -0.102474074009E+03   -0.34693E-05   -0.10581E-07   108   0.682E-04    0.972E-05
DAV:  13    -0.102474074962E+03   -0.95293E-06   -0.16856E-08   108   0.330E-04
  52 F= -.10247407E+03 E0= -.10247407E+03  d E =-.458725E-10
       N       E                     dE             d eps       ncg     rms          rms(c)
DAV:   1    -0.102472836085E+03    0.12379E-02   -0.40399E-01    96   0.178E+00    0.223E-01
DAV:   2    -0.102474343262E+03   -0.15072E-02   -0.18285E-02   132   0.411E-01    0.114E-01
DAV:   3    -0.102474231835E+03    0.11143E-03   -0.33133E-04   132   0.663E-02    0.597E-02
DAV:   4    -0.102474186800E+03    0.45035E-04   -0.12426E-04   132   0.425E-02    0.125E-02
DAV:   5    -0.102474179100E+03    0.77003E-05   -0.23107E-05   132   0.184E-02    0.752E-03
DAV:   6    -0.102474185820E+03   -0.67204E-05   -0.62354E-06   132   0.786E-03    0.409E-03
DAV:   7    -0.102474203195E+03   -0.17374E-04   -0.19801E-06   132   0.431E-03    0.165E-03
DAV:   8    -0.102474221793E+03   -0.18598E-04   -0.13693E-06   120   0.298E-03    0.105E-03
DAV:   9    -0.102474239987E+03   -0.18194E-04   -0.14396E-06   132   0.257E-03    0.727E-04
DAV:  10    -0.102474255733E+03   -0.15746E-04   -0.14853E-06   108   0.226E-03    0.387E-04
DAV:  11    -0.102474258922E+03   -0.31895E-05   -0.81038E-08   120   0.793E-04    0.281E-04
DAV:  12    -0.102474264650E+03   -0.57275E-05   -0.26599E-07    96   0.107E-03    0.143E-04
DAV:  13    -0.102474266207E+03   -0.15571E-05   -0.57560E-08   108   0.509E-04    0.120E-04
DAV:  14    -0.102474267132E+03   -0.92500E-06   -0.43108E-09   108   0.296E-04
  53 F= -.10247427E+03 E0= -.10247427E+03  d E =-.918098E-10
       N       E                     dE             d eps       ncg     rms          rms(c)
DAV:   1    -0.102474124637E+03    0.14157E-03   -0.19992E-01    96   0.124E+00    0.145E-01
DAV:   2    -0.102474891598E+03   -0.76696E-03   -0.93553E-03   132   0.292E-01    0.839E-02
DAV:   3    -0.102474829447E+03    0.62151E-04   -0.15912E-04   132   0.470E-02    0.434E-02
DAV:   4    -0.102474803737E+03    0.25711E-04   -0.70791E-05   132   0.319E-02    0.852E-03
DAV:   5    -0.102474797543E+03    0.61934E-05   -0.13061E-05   132   0.137E-02    0.562E-03
DAV:   6    -0.102474798513E+03   -0.96960E-06   -0.33830E-06   132   0.575E-03
  54 F= -.10247480E+03 E0= -.10247480E+03  d E =-.874888E-11
       N       E                     dE             d eps       ncg     rms          rms(c)
DAV:   1    -0.102473627371E+03    0.11702E-02   -0.41409E-01    96   0.173E+00    0.182E-01
DAV:   2    -0.102474919615E+03   -0.12922E-02   -0.15233E-02   132   0.366E-01    0.927E-02
DAV:   3    -0.102474872424E+03    0.47191E-04   -0.31194E-04   132   0.636E-02    0.472E-02
DAV:   4    -0.102474868682E+03    0.37416E-05   -0.99554E-05   132   0.404E-02    0.113E-02
DAV:   5    -0.102474863487E+03    0.51955E-05   -0.20773E-05   132   0.173E-02    0.745E-03
DAV:   6    -0.102474862589E+03    0.89836E-06   -0.42097E-06   132   0.712E-03
  55 F= -.10247486E+03 E0= -.10247486E+03  d E =-.551235E-10
       N       E                     dE             d eps       ncg     rms          rms(c)
DAV:   1    -0.102473619656E+03    0.12438E-02   -0.20409E-01    96   0.128E+00    0.139E-01
DAV:   2    -0.102474594034E+03   -0.97438E-03   -0.11264E-02   132   0.299E-01    0.688E-02
DAV:   3    -0.102474580506E+03    0.13528E-04   -0.22579E-04   144   0.500E-02    0.389E-02
DAV:   4    -0.102474580308E+03    0.19802E-06   -0.52082E-05   120   0.302E-02    0.900E-03
DAV:   5    -0.102474580288E+03    0.19912E-07   -0.13817E-05   132   0.143E-02    0.596E-03
DAV:   6    -0.102474581883E+03   -0.15952E-05   -0.23590E-06   132   0.538E-03    0.354E-03
DAV:   7    -0.102474585714E+03   -0.38307E-05   -0.56364E-07   108   0.285E-03    0.128E-03
DAV:   8    -0.102474590053E+03   -0.43390E-05   -0.37430E-07   108   0.215E-03    0.629E-04
DAV:   9    -0.102474595656E+03   -0.56035E-05   -0.35554E-07   108   0.181E-03    0.387E-04
DAV:  10    -0.102474599212E+03   -0.35554E-05   -0.25472E-07   108   0.131E-03    0.252E-04
DAV:  11    -0.102474601088E+03   -0.18760E-05   -0.63679E-08   108   0.717E-04    0.180E-04
DAV:  12    -0.102474602524E+03   -0.14364E-05   -0.42140E-08   108   0.487E-04    0.103E-04
DAV:  13    -0.102474603188E+03   -0.66372E-06   -0.11059E-08   108   0.277E-04
  56 F= -.10247460E+03 E0= -.10247460E+03  d E =-.536434E-10
       N       E                     dE             d eps       ncg     rms          rms(c)
DAV:   1    -0.102473604402E+03    0.99812E-03   -0.40900E-01   120   0.166E+00    0.191E-01
DAV:   2    -0.102474987809E+03   -0.13834E-02   -0.16667E-02   120   0.367E-01    0.936E-02
DAV:   3    -0.102474950252E+03    0.37557E-04   -0.36348E-04   144   0.671E-02    0.493E-02
DAV:   4    -0.102474927027E+03    0.23225E-04   -0.79437E-05   132   0.421E-02    0.104E-02
DAV:   5    -0.102474922598E+03    0.44289E-05   -0.29263E-05   132   0.206E-02    0.868E-03
DAV:   6    -0.102474923498E+03   -0.89965E-06   -0.40137E-06   132   0.642E-03
  57 F= -.10247492E+03 E0= -.10247492E+03  d E =-.651282E-11
       N       E                     dE             d eps       ncg     rms          rms(c)
DAV:   1    -0.102473617960E+03    0.13046E-02   -0.20137E-01    96   0.120E+00    0.138E-01
DAV:   2    -0.102474361144E+03   -0.74318E-03   -0.89390E-03   132   0.266E-01    0.820E-02
DAV:   3    -0.102474341423E+03    0.19721E-04   -0.15273E-04   132   0.417E-02    0.422E-02
DAV:   4    -0.102474317802E+03    0.23621E-04   -0.48291E-05   120   0.256E-02    0.781E-03
DAV:   5    -0.102474311458E+03    0.63444E-05   -0.76436E-06   132   0.111E-02    0.472E-03
DAV:   6    -0.102474315660E+03   -0.42017E-05   -0.40433E-06   132   0.643E-03    0.231E-03
DAV:   7    -0.102474325064E+03   -0.94047E-05   -0.12187E-06   120   0.375E-03    0.134E-03
DAV:   8    -0.102474337398E+03   -0.12334E-04   -0.83969E-07   120   0.235E-03    0.662E-04
DAV:   9    -0.102474348290E+03   -0.10891E-04   -0.85704E-07   120   0.205E-03    0.526E-04
DAV:  10    -0.102474358608E+03   -0.10319E-04   -0.94301E-07   108   0.185E-03    0.216E-04
DAV:  11    -0.102474361430E+03   -0.28216E-05   -0.92134E-08   108   0.740E-04    0.178E-04
DAV:  12    -0.102474364173E+03   -0.27425E-05   -0.14040E-07    96   0.723E-04    0.799E-05
DAV:  13    -0.102474364719E+03   -0.54666E-06   -0.13929E-08   108   0.293E-04
  58 F= -.10247436E+03 E0= -.10247436E+03  d E =-.426587E-10
       N       E                     dE             d eps       ncg     rms          rms(c)
DAV:   1    -0.102472204299E+03    0.21599E-02   -0.40289E-01    96   0.175E+00    0.212E-01
DAV:   2    -0.102473730629E+03   -0.15263E-02   -0.18709E-02   120   0.405E-01    0.115E-01
DAV:   3    -0.102473640097E+03    0.90532E-04   -0.32022E-04   132   0.608E-02    0.599E-02
DAV:   4    -0.102473581917E+03    0.58180E-04   -0.92429E-05   132   0.362E-02    0.119E-02
DAV:   5    -0.102473568371E+03    0.13546E-04   -0.16799E-05   132   0.166E-02    0.672E-03
DAV:   6    -0.102473572428E+03   -0.40572E-05   -0.73477E-06   132   0.911E-03    0.341E-03
DAV:   7    -0.102473588365E+03   -0.15937E-04   -0.24489E-06   132   0.561E-03    0.199E-03
DAV:   8    -0.102473612110E+03   -0.23745E-04   -0.14599E-06   120   0.374E-03    0.112E-03
DAV:   9    -0.102473632004E+03   -0.19894E-04   -0.11905E-06   120   0.271E-03    0.842E-04
DAV:  10    -0.102473650748E+03   -0.18744E-04   -0.82604E-07   120   0.192E-03    0.364E-04
DAV:  11    -0.102473659615E+03   -0.88671E-05   -0.20552E-07   108   0.102E-03    0.280E-04
DAV:  12    -0.102473668112E+03   -0.84967E-05   -0.22958E-07   108   0.942E-04    0.138E-04
DAV:  13    -0.102473670536E+03   -0.24236E-05   -0.42165E-08   108   0.452E-04    0.851E-05
DAV:  14    -0.102473672133E+03   -0.15972E-05   -0.10717E-08   108   0.304E-04    0.455E-05
DAV:  15    -0.102473672864E+03   -0.73155E-06   -0.27844E-09   108   0.199E-04
  59 F= -.10247367E+03 E0= -.10247367E+03  d E =-.430085E-11
       N       E                     dE             d eps       ncg     rms          rms(c)
DAV:   1    -0.102472636730E+03    0.10354E-02   -0.20124E-01    96   0.118E+00    0.152E-01
DAV:   2    -0.102473441111E+03   -0.80438E-03   -0.98826E-03   132   0.301E-01    0.895E-02
DAV:   3    -0.102473383243E+03    0.57868E-04   -0.15678E-04   132   0.442E-02    0.482E-02
DAV:   4    -0.102473352629E+03    0.30614E-04   -0.67727E-05   132   0.319E-02    0.799E-03
DAV:   5    -0.102473348299E+03    0.43303E-05   -0.15036E-05   132   0.143E-02    0.557E-03
DAV:   6    -0.102473353033E+03   -0.47338E-05   -0.52017E-06   132   0.627E-03    0.321E-03
DAV:   7    -0.102473364585E+03   -0.11552E-04   -0.69300E-07   108   0.272E-03    0.162E-03
DAV:   8    -0.102473385050E+03   -0.20465E-04   -0.22333E-06   120   0.324E-03    0.968E-04
DAV:   9    -0.102473397225E+03   -0.12175E-04   -0.67952E-07   108   0.203E-03    0.686E-04
DAV:  10    -0.102473409849E+03   -0.12625E-04   -0.11168E-06   108   0.197E-03    0.288E-04
DAV:  11    -0.102473414879E+03   -0.50292E-05   -0.17522E-07   108   0.103E-03    0.257E-04
DAV:  12    -0.102473417904E+03   -0.30253E-05   -0.92796E-08   108   0.673E-04    0.158E-04
DAV:  13    -0.102473419422E+03   -0.15182E-05   -0.35718E-08   108   0.423E-04    0.932E-05
DAV:  14    -0.102473420236E+03   -0.81391E-06   -0.43943E-09   108   0.253E-04
  60 F= -.10247342E+03 E0= -.10247342E+03  d E =-.832752E-10
       N       E                     dE             d eps       ncg     rms          rms(c)
DAV:   1    -0.102472004767E+03    0.14147E-02   -0.40062E-01    96   0.171E+00    0.206E-01
DAV:   2    -0.102473598249E+03   -0.15935E-02   -0.19759E-02   120   0.417E-01    0.129E-01
DAV:   3    -0.102473482254E+03    0.11600E-03   -0.30363E-04   132   0.615E-02    0.689E-02
DAV:   4    -0.102473420783E+03    0.61471E-04   -0.13693E-04   132   0.440E-02    0.112E-02
DAV:   5    -0.102473418321E+03    0.24619E-05   -0.25384E-05   132   0.189E-02    0.789E-03
DAV:   6    -0.102473434978E+03   -0.16657E-04   -0.11915E-05   132   0.930E-03    0.414E-03
DAV:   7    -0.102473462648E+03   -0.27670E-04   -0.25079E-06   132   0.475E-03    0.219E-03
DAV:   8    -0.102473506535E+03   -0.43887E-04   -0.52095E-06   132   0.492E-03    0.133E-03
DAV:   9    -0.102473529771E+03   -0.23236E-04   -0.17983E-06   120   0.294E-03    0.888E-04
DAV:  10    -0.102473552355E+03   -0.22584E-04   -0.21297E-06   108   0.286E-03    0.505E-04
DAV:  11    -0.102473560580E+03   -0.82249E-05   -0.37460E-07   108   0.138E-03    0.319E-04
DAV:  12    -0.102473565776E+03   -0.51968E-05   -0.27874E-07   108   0.107E-03    0.188E-04
DAV:  13    -0.102473567410E+03   -0.16333E-05   -0.37028E-08   108   0.502E-04    0.988E-05
DAV:  14    -0.102473568480E+03   -0.10707E-05   -0.12184E-08   108   0.321E-04    0.521E-05
DAV:  15    -0.102473568952E+03   -0.47182E-06   -0.12083E-10   108   0.184E-04
  61 F= -.10247357E+03 E0= -.10247357E+03  d E =-.457328E-10
       N       E                     dE             d eps       ncg     rms          rms(c)
DAV:   1    -0.102476722074E+03   -0.31536E-02   -0.21692E-01    96   0.149E+00    0.124E-01
DAV:   2    -0.102477063621E+03   -0.34155E-03   -0.54488E-03   132   0.231E-01    0.797E-02
DAV:   3    -0.102476998594E+03    0.65027E-04   -0.13752E-04   132   0.399E-02    0.361E-02
DAV:   4    -0.102476983637E+03    0.14958E-04   -0.58052E-05   132   0.264E-02    0.705E-03
DAV:   5    -0.102476980346E+03    0.32902E-05   -0.65999E-06   132   0.993E-03    0.484E-03
DAV:   6    -0.102476981137E+03   -0.79113E-06   -0.27803E-06   120   0.543E-03
  62 F= -.10247698E+03 E0= -.10247698E+03  d E =-.703935E-10
       N       E                     dE             d eps       ncg     rms          rms(c)
DAV:   1    -0.102477040894E+03   -0.60548E-04   -0.52782E-01    96   0.242E+00    0.174E-01
DAV:   2    -0.102476937507E+03    0.10339E-03   -0.28060E-03   132   0.175E-01    0.984E-02
DAV:   3    -0.102476803547E+03    0.13396E-03   -0.39741E-04   132   0.598E-02    0.199E-02
DAV:   4    -0.102476809269E+03   -0.57221E-05   -0.66841E-05   132   0.254E-02    0.949E-03
DAV:   5    -0.102476811641E+03   -0.23726E-05   -0.32006E-06   132   0.626E-03    0.610E-03
DAV:   6    -0.102476818405E+03   -0.67638E-05   -0.21083E-06   120   0.489E-03    0.141E-03
DAV:   7    -0.102476823300E+03   -0.48946E-05   -0.73536E-07   108   0.282E-03    0.110E-03
DAV:   8    -0.102476828440E+03   -0.51402E-05   -0.20862E-07    96   0.158E-03    0.587E-04
DAV:   9    -0.102476835655E+03   -0.72149E-05   -0.41372E-07    96   0.184E-03    0.455E-04
DAV:  10    -0.102476837732E+03   -0.20769E-05   -0.10142E-07   108   0.948E-04    0.252E-04
DAV:  11    -0.102476840365E+03   -0.26332E-05   -0.96022E-08   108   0.729E-04    0.237E-04
DAV:  12    -0.102476841734E+03   -0.13688E-05   -0.45254E-08   108   0.482E-04    0.126E-04
DAV:  13    -0.102476842599E+03   -0.86473E-06   -0.16531E-08   108   0.324E-04
  63 F= -.10247684E+03 E0= -.10247684E+03  d E =-.508495E-10
       N       E                     dE             d eps       ncg     rms          rms(c)
DAV:   1    -0.102476110974E+03    0.73076E-03   -0.27303E-01   108   0.173E+00    0.146E-01
DAV:   2    -0.102476061497E+03    0.49477E-04   -0.21691E-03   120   0.142E-01    0.801E-02
DAV:   3    -0.102475960540E+03    0.10096E-03   -0.27577E-04   132   0.444E-02    0.213E-02
DAV:   4    -0.102475955468E+03    0.50713E-05   -0.47804E-05   144   0.197E-02    0.815E-03
DAV:   5    -0.102475954043E+03    0.14259E-05   -0.36089E-06   120   0.721E-03    0.343E-03
DAV:   6    -0.102475955757E+03   -0.17144E-05   -0.23720E-06   132   0.494E-03    0.142E-03
DAV:   7    -0.102475958968E+03   -0.32115E-05   -0.55971E-07   108   0.255E-03    0.812E-04
DAV:   8    -0.102475961783E+03   -0.28145E-05   -0.17397E-07   108   0.153E-03    0.533E-04
DAV:   9    -0.102475966131E+03   -0.43478E-05   -0.28729E-07   108   0.140E-03    0.245E-04
DAV:  10    -0.102475968676E+03   -0.25448E-05   -0.13014E-07   108   0.907E-04    0.146E-04
DAV:  11    -0.102475969922E+03   -0.12469E-05   -0.17075E-08   108   0.384E-04    0.114E-04
DAV:  12    -0.102475971820E+03   -0.18973E-05   -0.35824E-08   108   0.392E-04    0.500E-05
DAV:  13    -0.102475972356E+03   -0.53579E-06   -0.46700E-09   108   0.206E-04
  64 F= -.10247597E+03 E0= -.10247597E+03  d E =-.630078E-10
       N       E                     dE             d eps       ncg     rms          rms(c)
DAV:   1    -0.102476047492E+03   -0.75673E-04   -0.53834E-01    96   0.237E+00    0.197E-01
DAV:   2    -0.102475891253E+03    0.15624E-03   -0.36626E-03   120   0.187E-01    0.108E-01
DAV:   3    -0.102475691998E+03    0.19926E-03   -0.50321E-04   132   0.588E-02    0.277E-02
DAV:   4    -0.102475682182E+03    0.98151E-05   -0.65649E-05   132   0.242E-02    0.114E-02
DAV:   5    -0.102475685207E+03   -0.30244E-05   -0.60653E-06   132   0.913E-03    0.529E-03
DAV:   6    -0.102475693798E+03   -0.85909E-05   -0.34589E-06   132   0.610E-03    0.167E-03
DAV:   7    -0.102475702853E+03   -0.90554E-05   -0.85806E-07   108   0.320E-03    0.113E-03
DAV:   8    -0.102475712356E+03   -0.95024E-05   -0.65137E-07   108   0.220E-03    0.618E-04
DAV:   9    -0.102475721365E+03   -0.90093E-05   -0.65549E-07   120   0.194E-03    0.328E-04
DAV:  10    -0.102475726239E+03   -0.48741E-05   -0.26750E-07   108   0.125E-03    0.212E-04
DAV:  11    -0.102475728446E+03   -0.22066E-05   -0.97324E-08   108   0.647E-04    0.144E-04
DAV:  12    -0.102475730503E+03   -0.20573E-05   -0.75622E-08   108   0.553E-04    0.811E-05
DAV:  13    -0.102475731037E+03   -0.53380E-06   -0.11391E-08   108   0.268E-04
  65 F= -.10247573E+03 E0= -.10247573E+03  d E =-.531387E-10
       N       E                     dE             d eps       ncg     rms          rms(c)
DAV:   1    -0.102477114852E+03   -0.13843E-02   -0.27257E-01   108   0.170E+00    0.144E-01
DAV:   2    -0.102477044723E+03    0.70128E-04   -0.21101E-03   132   0.149E-01    0.788E-02
DAV:   3    -0.102476944957E+03    0.99766E-04   -0.27663E-04   132   0.497E-02    0.214E-02
DAV:   4    -0.102476942736E+03    0.22209E-05   -0.55527E-05   132   0.221E-02    0.773E-03
DAV:   5    -0.102476941832E+03    0.90478E-06   -0.28705E-06   120   0.646E-03
  66 F= -.10247694E+03 E0= -.10247694E+03  d E =-.648823E-10
       N       E                     dE             d eps       ncg     rms          rms(c)
DAV:   1    -0.102477249993E+03   -0.30726E-03   -0.53488E-01    96   0.241E+00    0.171E-01
DAV:   2    -0.102477104768E+03    0.14523E-03   -0.27446E-03   132   0.170E-01    0.977E-02
DAV:   3    -0.102476967214E+03    0.13755E-03   -0.45920E-04   132   0.658E-02    0.172E-02
DAV:   4    -0.102476973035E+03   -0.58205E-05   -0.75858E-05   132   0.277E-02    0.869E-03
DAV:   5    -0.102476972604E+03    0.43098E-06   -0.27934E-06   132   0.579E-03
  67 F= -.10247697E+03 E0= -.10247697E+03  d E =-.638187E-10
       N       E                     dE             d eps       ncg     rms          rms(c)
DAV:   1    -0.102477569286E+03   -0.59625E-03   -0.26588E-01    96   0.181E+00    0.119E-01
DAV:   2    -0.102477546645E+03    0.22642E-04   -0.14141E-03   132   0.127E-01    0.686E-02
DAV:   3    -0.102477490850E+03    0.55794E-04   -0.14131E-04   132   0.357E-02    0.106E-02
DAV:   4    -0.102477492427E+03   -0.15767E-05   -0.20531E-05   132   0.143E-02    0.461E-03
DAV:   5    -0.102477492709E+03   -0.28210E-06   -0.53500E-07   108   0.283E-03
  68 F= -.10247749E+03 E0= -.10247749E+03  d E =-.637031E-10
       N       E                     dE             d eps       ncg     rms          rms(c)
DAV:   1    -0.102477667546E+03   -0.17512E-03   -0.52752E-01    96   0.250E+00    0.160E-01
DAV:   2    -0.102477549738E+03    0.11781E-03   -0.22492E-03   132   0.161E-01    0.926E-02
DAV:   3    -0.102477447537E+03    0.10220E-03   -0.38021E-04   132   0.640E-02    0.119E-02
DAV:   4    -0.102477454400E+03   -0.68635E-05   -0.61956E-05   132   0.263E-02    0.814E-03
DAV:   5    -0.102477454664E+03   -0.26324E-06   -0.16845E-06   120   0.466E-03
  69 F= -.10247745E+03 E0= -.10247745E+03  d E =-.691423E-10
       N       E                     dE             d eps       ncg     rms          rms(c)
DAV:   1    -0.102477562966E+03   -0.10857E-03   -0.26644E-01    96   0.174E+00    0.113E-01
DAV:   2    -0.102477498416E+03    0.64550E-04   -0.10520E-03   132   0.103E-01    0.655E-02
DAV:   3    -0.102477444424E+03    0.53992E-04   -0.19000E-04   132   0.397E-02    0.889E-03
DAV:   4    -0.102477445986E+03   -0.15623E-05   -0.25238E-05   132   0.159E-02    0.508E-03
DAV:   5    -0.102477445769E+03    0.21759E-06   -0.81163E-07   108   0.339E-03
[...]
DAV:   9    -0.102475308904E+03   -0.40382E-05   -0.25464E-07   108   0.141E-03    0.495E-04
DAV:  10    -0.102475314101E+03   -0.51969E-05   -0.40884E-07    96   0.153E-03    0.433E-04
DAV:  11    -0.102475315429E+03   -0.13278E-05   -0.89148E-08   108   0.803E-04    0.292E-04
DAV:  12    -0.102475315865E+03   -0.43579E-06   -0.54731E-09   108   0.342E-04
 129 F= -.10247532E+03 E0= -.10247532E+03  d E =-.610028E-10
       N       E                     dE             d eps       ncg     rms          rms(c)
DAV:   1    -0.102477853807E+03   -0.25384E-02   -0.28259E-01    96   0.170E+00    0.186E-01
DAV:   2    -0.102477652697E+03    0.20111E-03   -0.21115E-03   132   0.155E-01    0.930E-02
DAV:   3    -0.102477535075E+03    0.11762E-03   -0.33660E-04   132   0.542E-02    0.315E-02
DAV:   4    -0.102477532314E+03    0.27609E-05   -0.76965E-05   132   0.262E-02    0.119E-02
DAV:   5    -0.102477531072E+03    0.12413E-05   -0.38776E-06   132   0.835E-03    0.510E-03
DAV:   6    -0.102477531872E+03   -0.79926E-06   -0.25698E-06   132   0.543E-03
 130 F= -.10247753E+03 E0= -.10247753E+03  d E =-.581922E-10
       N       E                     dE             d eps       ncg     rms          rms(c)
DAV:   1    -0.102477736245E+03   -0.20517E-03   -0.54114E-01    96   0.234E+00    0.196E-01
DAV:   2    -0.102477513601E+03    0.22264E-03   -0.29050E-03   132   0.180E-01    0.111E-01
DAV:   3    -0.102477354430E+03    0.15917E-03   -0.43266E-04   132   0.647E-02    0.238E-02
DAV:   4    -0.102477361867E+03   -0.74375E-05   -0.69264E-05   132   0.271E-02    0.939E-03
DAV:   5    -0.102477362647E+03   -0.77991E-06   -0.30057E-06   132   0.636E-03
 131 F= -.10247736E+03 E0= -.10247736E+03  d E =-.776699E-10
       N       E                     dE             d eps       ncg     rms          rms(c)
DAV:   1    -0.102477233168E+03    0.12870E-03   -0.26982E-01    96   0.163E+00    0.139E-01
DAV:   2    -0.102477120215E+03    0.11295E-03   -0.14638E-03   120   0.126E-01    0.780E-02
DAV:   3    -0.102477045125E+03    0.75089E-04   -0.20782E-04   132   0.459E-02    0.178E-02
DAV:   4    -0.102477048185E+03   -0.30591E-05   -0.35619E-05   132   0.193E-02    0.719E-03
DAV:   5    -0.102477048522E+03   -0.33759E-06   -0.13766E-06   108   0.464E-03
 132 F= -.10247705E+03 E0= -.10247705E+03  d E =-.653716E-10
       N       E                     dE             d eps       ncg     rms          rms(c)
DAV:   1    -0.102477425378E+03   -0.37719E-03   -0.54999E-01    96   0.237E+00    0.222E-01
DAV:   2    -0.102477125117E+03    0.30026E-03   -0.31739E-03   120   0.191E-01    0.117E-01
DAV:   3    -0.102476947185E+03    0.17793E-03   -0.46301E-04   132   0.663E-02    0.351E-02
DAV:   4    -0.102476949579E+03   -0.23940E-05   -0.10428E-04   132   0.314E-02    0.122E-02
DAV:   5    -0.102476948709E+03    0.86959E-06   -0.51062E-06   132   0.899E-03
 133 F= -.10247695E+03 E0= -.10247695E+03  d E =-.624550E-10
       N       E                     dE             d eps       ncg     rms          rms(c)
DAV:   1    -0.102477062540E+03   -0.11296E-03   -0.27612E-01    96   0.200E+00    0.160E-01
DAV:   2    -0.102476959169E+03    0.10337E-03   -0.20583E-03   120   0.167E-01    0.853E-02
DAV:   3    -0.102476871166E+03    0.88003E-04   -0.21261E-04   132   0.478E-02    0.276E-02
DAV:   4    -0.102476870698E+03    0.46855E-06   -0.57385E-05   132   0.239E-02    0.848E-03
DAV:   5    -0.102476869986E+03    0.71144E-06   -0.36507E-06   132   0.743E-03
 134 F= -.10247687E+03 E0= -.10247687E+03  d E =-.668991E-10
       N       E                     dE             d eps       ncg     rms          rms(c)
DAV:   1    -0.102477239236E+03   -0.36854E-03   -0.55354E-01    96   0.256E+00    0.235E-01
DAV:   2    -0.102476878212E+03    0.36102E-03   -0.30760E-03   132   0.187E-01    0.120E-01
DAV:   3    -0.102476666402E+03    0.21181E-03   -0.47536E-04   132   0.623E-02    0.373E-02
DAV:   4    -0.102476661408E+03    0.49941E-05   -0.10314E-04   120   0.304E-02    0.123E-02
DAV:   5    -0.102476661592E+03   -0.18434E-06   -0.61250E-06   132   0.100E-02
 135 F= -.10247666E+03 E0= -.10247666E+03  d E =-.588351E-10
       N       E                     dE             d eps       ncg     rms          rms(c)
DAV:   1    -0.102475939596E+03    0.72181E-03   -0.29012E-01    96   0.185E+00    0.213E-01
DAV:   2    -0.102475694025E+03    0.24557E-03   -0.24494E-03   132   0.168E-01    0.103E-01
DAV:   3    -0.102475548079E+03    0.14595E-03   -0.39677E-04   132   0.631E-02    0.367E-02
DAV:   4    -0.102475548250E+03   -0.17067E-06   -0.12640E-04   132   0.351E-02    0.140E-02
DAV:   5    -0.102475546754E+03    0.14962E-05   -0.56211E-06   132   0.991E-03    0.620E-03
DAV:   6    -0.102475546855E+03   -0.10118E-06   -0.28457E-06   132   0.618E-03
 136 F= -.10247555E+03 E0= -.10247555E+03  d E =-.648005E-10
       N       E                     dE             d eps       ncg     rms          rms(c)
DAV:   1    -0.102476762832E+03   -0.12161E-02   -0.57358E-01    96   0.267E+00    0.275E-01
DAV:   2    -0.102476222006E+03    0.54083E-03   -0.45426E-03   132   0.236E-01    0.138E-01
DAV:   3    -0.102475923221E+03    0.29878E-03   -0.80677E-04   132   0.882E-02    0.462E-02
DAV:   4    -0.102475923591E+03   -0.36988E-06   -0.21833E-04   132   0.466E-02    0.193E-02
DAV:   5    -0.102475922885E+03    0.70638E-06   -0.83768E-06   132   0.115E-02
 137 F= -.10247592E+03 E0= -.10247592E+03  d E =-.615110E-10
       N       E                     dE             d eps       ncg     rms          rms(c)
DAV:   1    -0.102477388605E+03   -0.14650E-02   -0.28865E-01    96   0.185E+00    0.206E-01
DAV:   2    -0.102477114601E+03    0.27400E-03   -0.22008E-03   132   0.165E-01    0.100E-01
DAV:   3    -0.102476974533E+03    0.14007E-03   -0.40857E-04   132   0.628E-02    0.342E-02
DAV:   4    -0.102476975860E+03   -0.13264E-05   -0.11156E-04   132   0.330E-02    0.134E-02
DAV:   5    -0.102476974983E+03    0.87675E-06   -0.43984E-06   132   0.869E-03
 138 F= -.10247697E+03 E0= -.10247697E+03  d E =-.631428E-10
       N       E                     dE             d eps       ncg     rms          rms(c)
DAV:   1    -0.102477410648E+03   -0.43479E-03   -0.54689E-01    96   0.257E+00    0.227E-01
DAV:   2    -0.102477090941E+03    0.31971E-03   -0.33018E-03   132   0.197E-01    0.119E-01
DAV:   3    -0.102476893973E+03    0.19697E-03   -0.47600E-04   132   0.667E-02    0.349E-02
DAV:   4    -0.102476895186E+03   -0.12126E-05   -0.96391E-05   132   0.308E-02    0.124E-02
DAV:   5    -0.102476895504E+03   -0.31834E-06   -0.50676E-06   132   0.884E-03
 139 F= -.10247690E+03 E0= -.10247690E+03  d E =-.637399E-10
       N       E                     dE             d eps       ncg     rms          rms(c)
DAV:   1    -0.102476861545E+03    0.33641E-04   -0.27646E-01    96   0.185E+00    0.166E-01
DAV:   2    -0.102476743896E+03    0.11765E-03   -0.17791E-03   120   0.140E-01    0.873E-02
DAV:   3    -0.102476654151E+03    0.89745E-04   -0.27248E-04   132   0.453E-02    0.259E-02
DAV:   4    -0.102476651525E+03    0.26256E-05   -0.41602E-05   132   0.191E-02    0.105E-02
DAV:   5    -0.102476649870E+03    0.16553E-05   -0.24489E-06   144   0.688E-03    0.514E-03
DAV:   6    -0.102476649783E+03    0.86882E-07   -0.21504E-06   132   0.556E-03
 140 F= -.10247665E+03 E0= -.10247665E+03  d E =-.648319E-10
       N       E                     dE             d eps       ncg     rms          rms(c)
DAV:   1    -0.102477058330E+03   -0.40846E-03   -0.55707E-01    96   0.257E+00    0.245E-01
DAV:   2    -0.102476673700E+03    0.38463E-03   -0.33155E-03   132   0.195E-01    0.124E-01
DAV:   3    -0.102476451965E+03    0.22174E-03   -0.52543E-04   132   0.653E-02    0.396E-02
DAV:   4    -0.102476444726E+03    0.72388E-05   -0.11469E-04   144   0.322E-02    0.135E-02
DAV:   5    -0.102476444775E+03   -0.48562E-07   -0.64673E-06   132   0.106E-02
 141 F= -.10247644E+03 E0= -.10247644E+03  d E =-.606816E-10
       N       E                     dE             d eps       ncg     rms          rms(c)
DAV:   1    -0.102475863606E+03    0.58112E-03   -0.27292E-01    96   0.180E+00    0.139E-01
DAV:   2    -0.102475727768E+03    0.13584E-03   -0.14437E-03   132   0.127E-01    0.785E-02
DAV:   3    -0.102475642301E+03    0.85466E-04   -0.26138E-04   132   0.506E-02    0.164E-02
DAV:   4    -0.102475647361E+03   -0.50599E-05   -0.49567E-05   132   0.230E-02    0.876E-03
DAV:   5    -0.102475647938E+03   -0.57658E-06   -0.10336E-06   120   0.425E-03
 142 F= -.10247565E+03 E0= -.10247565E+03  d E =-.620892E-10
       N       E                     dE             d eps       ncg     rms          rms(c)
DAV:   1    -0.102476111446E+03   -0.46408E-03   -0.58071E-01    96   0.260E+00    0.289E-01
DAV:   2    -0.102475581464E+03    0.52998E-03   -0.48283E-03   132   0.239E-01    0.143E-01
DAV:   3    -0.102475266926E+03    0.31454E-03   -0.81186E-04   132   0.908E-02    0.489E-02
DAV:   4    -0.102475268144E+03   -0.12173E-05   -0.24752E-04   132   0.491E-02    0.182E-02
DAV:   5    -0.102475265857E+03    0.22863E-05   -0.10863E-05   132   0.133E-02    0.861E-03
DAV:   6    -0.102475266117E+03   -0.25941E-06   -0.51677E-06   132   0.831E-03
 143 F= -.10247527E+03 E0= -.10247527E+03  d E =-.656676E-10
       N       E                     dE             d eps       ncg     rms          rms(c)
DAV:   1    -0.102477846155E+03   -0.25803E-02   -0.28116E-01    96   0.187E+00    0.167E-01
DAV:   2    -0.102477629160E+03    0.21699E-03   -0.18177E-03   132   0.150E-01    0.893E-02
DAV:   3    -0.102477515336E+03    0.11382E-03   -0.32856E-04   132   0.583E-02    0.256E-02
DAV:   4    -0.102477520745E+03   -0.54085E-05   -0.81180E-05   132   0.289E-02    0.117E-02
DAV:   5    -0.102477520882E+03   -0.13682E-06   -0.27009E-06   132   0.654E-03
 144 F= -.10247752E+03 E0= -.10247752E+03  d E =-.662924E-10
       N       E                     dE             d eps       ncg     rms          rms(c)
DAV:   1    -0.102477791351E+03   -0.27061E-03   -0.54096E-01    96   0.262E+00    0.200E-01
DAV:   2    -0.102477522494E+03    0.26886E-03   -0.28623E-03   120   0.181E-01    0.112E-01
DAV:   3    -0.102477355094E+03    0.16740E-03   -0.43436E-04   132   0.653E-02    0.244E-02
DAV:   4    -0.102477360471E+03   -0.53770E-05   -0.72621E-05   132   0.274E-02    0.995E-03
DAV:   5    -0.102477360901E+03   -0.43063E-06   -0.31086E-06   132   0.650E-03
 145 F= -.10247736E+03 E0= -.10247736E+03  d E =-.604174E-10
       N       E                     dE             d eps       ncg     rms          rms(c)
DAV:   1    -0.102476830719E+03    0.52975E-03   -0.27008E-01    96   0.200E+00    0.135E-01
DAV:   2    -0.102476766369E+03    0.64350E-04   -0.18400E-03   132   0.159E-01    0.760E-02
DAV:   3    -0.102476692164E+03    0.74204E-04   -0.21918E-04   132   0.499E-02    0.184E-02
DAV:   4    -0.102476695419E+03   -0.32553E-05   -0.49018E-05   144   0.228E-02    0.777E-03
DAV:   5    -0.102476695268E+03    0.15156E-06   -0.14781E-06   108   0.501E-03
 146 F= -.10247670E+03 E0= -.10247670E+03  d E =-.686741E-10
       N       E                     dE             d eps       ncg     rms          rms(c)
DAV:   1    -0.102476923072E+03   -0.22765E-03   -0.53547E-01   108   0.251E+00    0.178E-01
DAV:   2    -0.102476787646E+03    0.13543E-03   -0.31477E-03   132   0.178E-01    0.101E-01
DAV:   3    -0.102476628251E+03    0.15940E-03   -0.47339E-04   132   0.661E-02    0.205E-02
DAV:   4    -0.102476631344E+03   -0.30934E-05   -0.91095E-05   132   0.300E-02    0.101E-02
DAV:   5    -0.102476630322E+03    0.10223E-05   -0.30161E-06   132   0.615E-03    0.598E-03
DAV:   6    -0.102476631177E+03   -0.85540E-06   -0.25210E-06   132   0.537E-03
 147 F= -.10247663E+03 E0= -.10247663E+03  d E =-.581194E-10
       N       E                     dE             d eps       ncg     rms          rms(c)
DAV:   1    -0.102475577282E+03    0.10530E-02   -0.26334E-01    96   0.175E+00    0.111E-01
DAV:   2    -0.102475517391E+03    0.59891E-04   -0.10358E-03   120   0.101E-01    0.641E-02
DAV:   3    -0.102475459329E+03    0.58062E-04   -0.16891E-04   132   0.390E-02    0.101E-02
DAV:   4    -0.102475462138E+03   -0.28083E-05   -0.25259E-05   132   0.164E-02    0.589E-03
DAV:   5    -0.102475463354E+03   -0.12165E-05   -0.92912E-07   108   0.353E-03    0.394E-03
DAV:   6    -0.102475466428E+03   -0.30742E-05   -0.92199E-07   120   0.337E-03    0.716E-04
DAV:   7    -0.102475468116E+03   -0.16878E-05   -0.25455E-07   108   0.173E-03    0.680E-04
DAV:   8    -0.102475471356E+03   -0.32398E-05   -0.19086E-07   108   0.153E-03    0.271E-04
DAV:   9    -0.102475473254E+03   -0.18987E-05   -0.12928E-07   108   0.103E-03    0.244E-04
DAV:  10    -0.102475475290E+03   -0.20360E-05   -0.68612E-08   108   0.682E-04    0.122E-04
DAV:  11    -0.102475476245E+03   -0.95456E-06   -0.30284E-08   108   0.390E-04
 148 F= -.10247548E+03 E0= -.10247548E+03  d E =-.609428E-10
       N       E                     dE             d eps       ncg     rms          rms(c)
DAV:   1    -0.102475948868E+03   -0.47358E-03   -0.54175E-01    96   0.239E+00    0.204E-01
DAV:   2    -0.102475877341E+03    0.71527E-04   -0.42382E-03   120   0.194E-01    0.111E-01
DAV:   3    -0.102475684420E+03    0.19292E-03   -0.45402E-04   132   0.583E-02    0.334E-02
DAV:   4    -0.102475671789E+03    0.12631E-04   -0.92202E-05   132   0.266E-02    0.108E-02
DAV:   5    -0.102475669180E+03    0.26087E-05   -0.65274E-06   132   0.999E-03    0.511E-03
DAV:   6    -0.102475671816E+03   -0.26358E-05   -0.39974E-06   132   0.671E-03    0.182E-03
DAV:   7    -0.102475676145E+03   -0.43288E-05   -0.93681E-07   120   0.329E-03    0.121E-03
DAV:   8    -0.102475681684E+03   -0.55395E-05   -0.32143E-07   108   0.196E-03    0.600E-04
DAV:   9    -0.102475687009E+03   -0.53245E-05   -0.32922E-07   108   0.154E-03    0.370E-04
DAV:  10    -0.102475693102E+03   -0.60935E-05   -0.33720E-07   108   0.128E-03    0.199E-04
DAV:  11    -0.102475695890E+03   -0.27878E-05   -0.67875E-08   108   0.668E-04    0.148E-04
DAV:  12    -0.102475698229E+03   -0.23392E-05   -0.40486E-08   108   0.439E-04    0.930E-05
DAV:  13    -0.102475699247E+03   -0.10179E-05   -0.11526E-08   108   0.275E-04    0.455E-05
DAV:  14    -0.102475700059E+03   -0.81140E-06   -0.38947E-09   108   0.198E-04
 149 F= -.10247570E+03 E0= -.10247570E+03  d E =-.643784E-10
       N       E                     dE             d eps       ncg     rms          rms(c)
DAV:   1    -0.102477706820E+03   -0.20076E-02   -0.26620E-01    96   0.167E+00    0.127E-01
DAV:   2    -0.102477619388E+03    0.87433E-04   -0.13900E-03   120   0.125E-01    0.714E-02
DAV:   3    -0.102477546499E+03    0.72889E-04   -0.23139E-04   132   0.451E-02    0.140E-02
DAV:   4    -0.102477547230E+03   -0.73096E-06   -0.32793E-05   120   0.186E-02    0.746E-03
DAV:   5    -0.102477547629E+03   -0.39895E-06   -0.16433E-06   120   0.468E-03
 150 F= -.10247755E+03 E0= -.10247755E+03  d E =-.660448E-10
       N       E                     dE             d eps       ncg     rms          rms(c)
DAV:   1    -0.102477640218E+03   -0.92988E-04   -0.52584E-01    96   0.240E+00    0.160E-01
DAV:   2    -0.102477513901E+03    0.12632E-03   -0.21051E-03   132   0.152E-01    0.922E-02
DAV:   3    -0.102477404632E+03    0.10927E-03   -0.35392E-04   132   0.594E-02    0.126E-02
DAV:   4    -0.102477411359E+03   -0.67274E-05   -0.54586E-05   132   0.245E-02    0.777E-03
DAV:   5    -0.102477412546E+03   -0.11863E-05   -0.17022E-06   120   0.458E-03    0.571E-03
DAV:   6    -0.102477416557E+03   -0.40115E-05   -0.15345E-06   120   0.411E-03    0.111E-03
DAV:   7    -0.102477418951E+03   -0.23936E-05   -0.43306E-07   108   0.214E-03    0.998E-04
DAV:   8    -0.102477421912E+03   -0.29612E-05   -0.13167E-07   108   0.147E-03    0.490E-04
DAV:   9    -0.102477426085E+03   -0.41724E-05   -0.27422E-07   108   0.189E-03    0.478E-04
DAV:  10    -0.102477427941E+03   -0.18567E-05   -0.10959E-07   108   0.102E-03    0.191E-04
DAV:  11    -0.102477429309E+03   -0.13679E-05   -0.41742E-08   108   0.512E-04    0.240E-04
DAV:  12    -0.102477430136E+03   -0.82660E-06   -0.18803E-08   108   0.359E-04
 151 F= -.10247743E+03 E0= -.10247743E+03  d E =-.571041E-10
       N       E                     dE             d eps       ncg     rms          rms(c)
DAV:   1    -0.102475453031E+03    0.19763E-02   -0.26682E-01   108   0.181E+00    0.131E-01
DAV:   2    -0.102475397926E+03    0.55105E-04   -0.19175E-03   132   0.145E-01    0.712E-02
DAV:   3    -0.102475318780E+03    0.79146E-04   -0.21905E-04   132   0.473E-02    0.192E-02
DAV:   4    -0.102475319540E+03   -0.75965E-06   -0.52306E-05   132   0.224E-02    0.655E-03
DAV:   5    -0.102475320019E+03   -0.47902E-06   -0.26425E-06   132   0.592E-03
 152 F= -.10247532E+03 E0= -.10247532E+03  d E =-.598538E-10
       N       E                     dE             d eps       ncg     rms          rms(c)
DAV:   1    -0.102475642271E+03   -0.32273E-03   -0.54558E-01   108   0.248E+00    0.204E-01
DAV:   2    -0.102475514644E+03    0.12763E-03   -0.42697E-03   132   0.212E-01    0.115E-01
DAV:   3    -0.102475305165E+03    0.20948E-03   -0.58094E-04   132   0.710E-02    0.288E-02
DAV:   4    -0.102475303247E+03    0.19178E-05   -0.12121E-04   132   0.328E-02    0.112E-02
DAV:   5    -0.102475300738E+03    0.25087E-05   -0.55585E-06   132   0.895E-03    0.592E-03
DAV:   6    -0.102475301577E+03   -0.83849E-06   -0.40911E-06   120   0.718E-03
 153 F= -.10247530E+03 E0= -.10247530E+03  d E =-.686482E-10
       N       E                     dE             d eps       ncg     rms          rms(c)
DAV:   1    -0.102477466717E+03   -0.21660E-02   -0.26879E-01    96   0.175E+00    0.139E-01
DAV:   2    -0.102477406683E+03    0.60034E-04   -0.18701E-03   120   0.139E-01    0.764E-02
DAV:   3    -0.102477329515E+03    0.77168E-04   -0.23663E-04   132   0.425E-02    0.198E-02
DAV:   4    -0.102477327851E+03    0.16639E-05   -0.36407E-05   132   0.181E-02    0.786E-03
DAV:   5    -0.102477327038E+03    0.81327E-06   -0.28323E-06   132   0.621E-03
 154 F= -.10247733E+03 E0= -.10247733E+03  d E =-.597531E-10
       N       E                     dE             d eps       ncg     rms          rms(c)
DAV:   1    -0.102477719919E+03   -0.39207E-03   -0.53127E-01    96   0.242E+00    0.160E-01
DAV:   2    -0.102477614645E+03    0.10527E-03   -0.20544E-03   120   0.145E-01    0.924E-02
DAV:   3    -0.102477504698E+03    0.10995E-03   -0.34816E-04   132   0.548E-02    0.147E-02
DAV:   4    -0.102477507621E+03   -0.29225E-05   -0.50881E-05   132   0.225E-02    0.769E-03
DAV:   5    -0.102477506970E+03    0.65098E-06   -0.18816E-06   132   0.492E-03
 155 F= -.10247751E+03 E0= -.10247751E+03  d E =-.660235E-10
       N       E                     dE             d eps       ncg     rms          rms(c)
DAV:   1    -0.102477162813E+03    0.34481E-03   -0.26423E-01    96   0.169E+00    0.115E-01
DAV:   2    -0.102477102185E+03    0.60628E-04   -0.11422E-03   132   0.115E-01    0.667E-02
DAV:   3    -0.102477051488E+03    0.50697E-04   -0.19097E-04   132   0.451E-02    0.889E-03
DAV:   4    -0.102477055317E+03   -0.38284E-05   -0.32954E-05   120   0.190E-02    0.625E-03
DAV:   5    -0.102477055712E+03   -0.39499E-06   -0.75035E-07   108   0.335E-03
 156 F= -.10247706E+03 E0= -.10247706E+03  d E =-.634639E-10
       N       E                     dE             d eps       ncg     rms          rms(c)
DAV:   1    -0.102477169877E+03   -0.11456E-03   -0.52657E-01    96   0.245E+00    0.173E-01
DAV:   2    -0.102477064817E+03    0.10506E-03   -0.27225E-03   120   0.170E-01    0.972E-02
DAV:   3    -0.102476933990E+03    0.13083E-03   -0.38359E-04   132   0.584E-02    0.201E-02
DAV:   4    -0.102476935049E+03   -0.10590E-05   -0.59389E-05   132   0.244E-02    0.923E-03
DAV:   5    -0.102476935312E+03   -0.26379E-06   -0.32178E-06   132   0.632E-03
 157 F= -.10247694E+03 E0= -.10247694E+03  d E =-.616632E-10
