       N       E                     dE             d eps       ncg     rms          rms(c)
DAV:   1     0.201320948372E+03    0.20132E+03   -0.10489E+04   116   0.546E+02
DAV:   2    -0.288697356091E+02   -0.23019E+03   -0.21596E+03   144   0.102E+02
DAV:   3    -0.102931606228E+03   -0.74062E+02   -0.73887E+02   112   0.543E+01
DAV:   4    -0.107114317124E+03   -0.41827E+01   -0.41674E+01   104   0.181E+01
DAV:   5    -0.107196607714E+03   -0.82291E-01   -0.82239E-01   144   0.281E+00    0.151E+01
DAV:   6    -0.103957987958E+03    0.32386E+01   -0.16018E+00   104   0.460E+00    0.875E+00
DAV:   7    -0.102260909978E+03    0.16971E+01   -0.41411E+00   104   0.679E+00    0.123E+00
DAV:   8    -0.102209164393E+03    0.51746E-01   -0.27652E-01   104   0.223E+00    0.621E-01
DAV:   9    -0.102173669285E+03    0.35495E-01   -0.77193E-02   120   0.795E-01    0.338E-01
DAV:  10    -0.102173600035E+03    0.69250E-04   -0.29739E-03   112   0.218E-01    0.164E-01
DAV:  11    -0.102173432309E+03    0.16773E-03   -0.62941E-03   104   0.233E-01    0.794E-02
DAV:  12    -0.102177278946E+03   -0.38466E-02   -0.10774E-03    96   0.979E-02    0.595E-02
DAV:  13    -0.102182205348E+03   -0.49264E-02   -0.20275E-03   104   0.115E-01    0.351E-02
DAV:  14    -0.102186468499E+03   -0.42632E-02   -0.36415E-04   112   0.552E-02    0.155E-02
DAV:  15    -0.102190759440E+03   -0.42909E-02   -0.51247E-04   112   0.597E-02    0.163E-02
DAV:  16    -0.102191893045E+03   -0.11336E-02   -0.64555E-05   112   0.236E-02    0.685E-03
DAV:  17    -0.102192936332E+03   -0.10433E-02   -0.90578E-05   104   0.230E-02    0.353E-03
DAV:  18    -0.102193190024E+03   -0.25369E-03   -0.77522E-06   104   0.795E-03    0.200E-03
DAV:  19    -0.102193362710E+03   -0.17269E-03   -0.65360E-06    96   0.662E-03    0.190E-03
DAV:  20    -0.102193413928E+03   -0.51218E-04   -0.10303E-06    88   0.361E-03    0.485E-04
DAV:  21    -0.102193438086E+03   -0.24158E-04   -0.72869E-07    80   0.228E-03    0.542E-04
DAV:  22    -0.102193446681E+03   -0.85947E-05   -0.18403E-07    80   0.137E-03    0.194E-04
DAV:  23    -0.102193450140E+03   -0.34595E-05   -0.86086E-08    80   0.792E-04    0.152E-04
DAV:  24    -0.102193452465E+03   -0.23247E-05   -0.30313E-08    80   0.466E-04    0.861E-05
DAV:  25    -0.102193453426E+03   -0.96118E-06   -0.15707E-08    80   0.327E-04
   1 F= -.10219345E+03 E0= -.10219345E+03  d E =-.102193E+03
       N       E                     dE             d eps       ncg     rms          rms(c)
DAV:   1    -0.102377840947E+03   -0.18439E+00   -0.77671E+00    84   0.117E+01    0.122E+00
DAV:   2    -0.102406603622E+03   -0.28763E-01   -0.36819E-01   120   0.241E+00    0.625E-01
DAV:   3    -0.102401211501E+03    0.53921E-02   -0.15042E-02   120   0.492E-01    0.307E-01
DAV:   4    -0.102400087797E+03    0.11237E-02   -0.73922E-03   112   0.302E-01    0.700E-02
DAV:   5    -0.102399906424E+03    0.18137E-03   -0.64601E-04   112   0.111E-01    0.426E-02
DAV:   6    -0.102399947420E+03   -0.40995E-04   -0.16654E-04   112   0.468E-02    0.244E-02
DAV:   7    -0.102400141622E+03   -0.19420E-03   -0.54111E-05   110   0.304E-02    0.850E-03
DAV:   8    -0.102400239977E+03   -0.98354E-04   -0.22527E-05   112   0.186E-02    0.868E-03
DAV:   9    -0.102400355561E+03   -0.11558E-03   -0.63555E-06   112   0.868E-03    0.530E-03
DAV:  10    -0.102400537026E+03   -0.18147E-03   -0.15881E-05   104   0.948E-03    0.304E-03
DAV:  11    -0.102400580125E+03   -0.43099E-04   -0.13125E-06    96   0.382E-03    0.168E-03
DAV:  12    -0.102400657759E+03   -0.77634E-04   -0.49784E-06   104   0.527E-03    0.805E-04
DAV:  13    -0.102400673575E+03   -0.15816E-04   -0.32996E-07    88   0.226E-03    0.900E-04
DAV:  14    -0.102400700049E+03   -0.26474E-04   -0.70044E-07    88   0.201E-03    0.403E-04
DAV:  15    -0.102400706245E+03   -0.61966E-05   -0.18954E-07    88   0.112E-03    0.518E-04
DAV:  16    -0.102400713194E+03   -0.69489E-05   -0.10070E-07    88   0.858E-04    0.215E-04
DAV:  17    -0.102400714517E+03   -0.13224E-05   -0.22612E-08    88   0.391E-04    0.222E-04
DAV:  18    -0.102400715830E+03   -0.13137E-05   -0.15590E-08    80   0.351E-04    0.547E-05
DAV:  19    -0.102400716428E+03   -0.59758E-06   -0.84465E-09    80   0.255E-04
   2 F= -.10240072E+03 E0= -.10240072E+03  d E =-.207263E+00
       N       E                     dE             d eps       ncg     rms          rms(c)
DAV:   1    -0.102402533578E+03   -0.18177E-02   -0.58465E-02    84   0.102E+00    0.101E-01
DAV:   2    -0.102402728283E+03   -0.19471E-03   -0.27248E-03   120   0.207E-01    0.561E-02
DAV:   3    -0.102402679679E+03    0.48604E-04   -0.12099E-04   120   0.441E-02    0.269E-02
DAV:   4    -0.102402665419E+03    0.14260E-04   -0.54598E-05   112   0.261E-02    0.702E-03
DAV:   5    -0.102402663880E+03    0.15385E-05   -0.44409E-06   112   0.928E-03    0.363E-03
DAV:   6    -0.102402666589E+03   -0.27081E-05   -0.14063E-06    88   0.444E-03    0.173E-03
DAV:   7    -0.102402672347E+03   -0.57581E-05   -0.57230E-07    78   0.297E-03    0.648E-04
DAV:   8    -0.102402675548E+03   -0.32013E-05   -0.25359E-07    88   0.178E-03    0.720E-04
DAV:   9    -0.102402680117E+03   -0.45693E-05   -0.21904E-07    80   0.134E-03    0.199E-04
DAV:  10    -0.102402683335E+03   -0.32176E-05   -0.23728E-07    88   0.107E-03    0.262E-04
DAV:  11    -0.102402684475E+03   -0.11405E-05   -0.40225E-08    88   0.603E-04    0.863E-05
DAV:  12    -0.102402685507E+03   -0.10315E-05   -0.44184E-08    88   0.507E-04    0.561E-05
DAV:  13    -0.102402686152E+03   -0.64547E-06   -0.18958E-08    88   0.329E-04
   3 F= -.10240269E+03 E0= -.10240269E+03  d E =-.209233E+00
       N       E                     dE             d eps       ncg     rms          rms(c)
DAV:   1    -0.102439623083E+03   -0.36938E-01   -0.95110E-01    92   0.413E+00    0.404E-01
DAV:   2    -0.102444386355E+03   -0.47633E-02   -0.56821E-02   120   0.883E-01    0.194E-01
DAV:   3    -0.102444048889E+03    0.33747E-03   -0.23149E-03   128   0.193E-01    0.103E-01
DAV:   4    -0.102444033800E+03    0.15089E-04   -0.64527E-04   112   0.961E-02    0.346E-02
DAV:   5    -0.102444021947E+03    0.11853E-04   -0.65344E-05   112   0.348E-02    0.172E-02
DAV:   6    -0.102444024133E+03   -0.21855E-05   -0.14828E-05   120   0.155E-02    0.897E-03
DAV:   7    -0.102444044500E+03   -0.20367E-04   -0.71449E-06   104   0.107E-02    0.245E-03
DAV:   8    -0.102444053341E+03   -0.88413E-05   -0.12811E-06    88   0.506E-03    0.205E-03
DAV:   9    -0.102444064583E+03   -0.11242E-04   -0.53045E-07    80   0.251E-03    0.940E-04
DAV:  10    -0.102444082891E+03   -0.18308E-04   -0.16596E-06    88   0.361E-03    0.893E-04
DAV:  11    -0.102444089690E+03   -0.67995E-05   -0.38896E-07    88   0.196E-03    0.402E-04
DAV:  12    -0.102444095266E+03   -0.55762E-05   -0.29338E-07    88   0.137E-03    0.293E-04
DAV:  13    -0.102444097746E+03   -0.24794E-05   -0.73575E-08    88   0.752E-04    0.183E-04
DAV:  14    -0.102444099991E+03   -0.22455E-05   -0.90590E-08    88   0.749E-04    0.844E-05
DAV:  15    -0.102444100537E+03   -0.54597E-06   -0.17528E-08    96   0.343E-04
   4 F= -.10244410E+03 E0= -.10244410E+03  d E =-.414144E-01
       N       E                     dE             d eps       ncg     rms          rms(c)
DAV:   1    -0.102446037923E+03   -0.19379E-02   -0.88065E-02    84   0.126E+00    0.120E-01
DAV:   2    -0.102446484995E+03   -0.44707E-03   -0.53486E-03   120   0.271E-01    0.597E-02
DAV:   3    -0.102446454958E+03    0.30037E-04   -0.22016E-04   120   0.599E-02    0.316E-02
DAV:   4    -0.102446454296E+03    0.66237E-06   -0.60583E-05   112   0.296E-02    0.112E-02
DAV:   5    -0.102446451254E+03    0.30419E-05   -0.59340E-06   112   0.106E-02    0.528E-03
DAV:   6    -0.102446450798E+03    0.45588E-06   -0.13248E-06    96   0.485E-03
   5 F= -.10244645E+03 E0= -.10244645E+03  d E =-.437646E-01
       N       E                     dE             d eps       ncg     rms          rms(c)
DAV:   1    -0.102457512965E+03   -0.11062E-01   -0.29144E-01    84   0.250E+00    0.191E-01
DAV:   2    -0.102457864458E+03   -0.35149E-03   -0.84034E-03   112   0.364E-01    0.995E-02
DAV:   3    -0.102457751544E+03    0.11291E-03   -0.45176E-04   128   0.803E-02    0.529E-02
DAV:   4    -0.102457719683E+03    0.31861E-04   -0.12400E-04   104   0.386E-02    0.142E-02
DAV:   5    -0.102457715424E+03    0.42587E-05   -0.12781E-05   112   0.145E-02    0.911E-03
DAV:   6    -0.102457720653E+03   -0.52290E-05   -0.38774E-06   104   0.787E-03    0.317E-03
DAV:   7    -0.102457732853E+03   -0.12200E-04   -0.14441E-06    80   0.452E-03    0.141E-03
DAV:   8    -0.102457747082E+03   -0.14228E-04   -0.67668E-07    88   0.246E-03    0.924E-04
DAV:   9    -0.102457763032E+03   -0.15950E-04   -0.84863E-07    80   0.220E-03    0.458E-04
DAV:  10    -0.102457774990E+03   -0.11958E-04   -0.73324E-07    88   0.189E-03    0.275E-04
DAV:  11    -0.102457782001E+03   -0.70111E-05   -0.33964E-07    80   0.135E-03    0.216E-04
DAV:  12    -0.102457784252E+03   -0.22510E-05   -0.54356E-08    88   0.677E-04    0.107E-04
DAV:  13    -0.102457786176E+03   -0.19241E-05   -0.64283E-08    80   0.570E-04    0.613E-05
DAV:  14    -0.102457786608E+03   -0.43195E-06   -0.78733E-09    88   0.251E-04
   6 F= -.10245779E+03 E0= -.10245779E+03  d E =-.113358E-01
       N       E                     dE             d eps       ncg     rms          rms(c)
DAV:   1    -0.102459305537E+03   -0.15194E-02   -0.79769E-02    84   0.131E+00    0.998E-02
DAV:   2    -0.102459406151E+03   -0.10061E-03   -0.23263E-03   112   0.191E-01    0.524E-02
DAV:   3    -0.102459376564E+03    0.29587E-04   -0.12348E-04   128   0.420E-02    0.278E-02
DAV:   4    -0.102459367531E+03    0.90334E-05   -0.34073E-05   104   0.202E-02    0.748E-03
DAV:   5    -0.102459364956E+03    0.25745E-05   -0.34857E-06   112   0.755E-03    0.475E-03
DAV:   6    -0.102459365400E+03   -0.44401E-06   -0.95800E-07    88   0.411E-03
   7 F= -.10245937E+03 E0= -.10245937E+03  d E =-.129146E-01
       N       E                     dE             d eps       ncg     rms          rms(c)
DAV:   1    -0.102466299499E+03   -0.69345E-02   -0.34703E-01    88   0.274E+00    0.181E-01
DAV:   2    -0.102466759686E+03   -0.46019E-03   -0.88452E-03   112   0.372E-01    0.999E-02
DAV:   3    -0.102466639432E+03    0.12025E-03   -0.50025E-04   128   0.900E-02    0.485E-02
DAV:   4    -0.102466645784E+03   -0.63515E-05   -0.17917E-04   112   0.499E-02    0.136E-02
DAV:   5    -0.102466646779E+03   -0.99500E-06   -0.16859E-05   112   0.167E-02    0.793E-03
DAV:   6    -0.102466648226E+03   -0.14476E-05   -0.27842E-06   112   0.598E-03    0.344E-03
DAV:   7    -0.102466651087E+03   -0.28603E-05   -0.45626E-07    88   0.286E-03    0.877E-04
DAV:   8    -0.102466653718E+03   -0.26311E-05   -0.19814E-07    88   0.171E-03    0.709E-04
DAV:   9    -0.102466657495E+03   -0.37776E-05   -0.14216E-07    80   0.137E-03    0.322E-04
DAV:  10    -0.102466661394E+03   -0.38988E-05   -0.27739E-07    80   0.151E-03    0.335E-04
DAV:  11    -0.102466662500E+03   -0.11061E-05   -0.53183E-08    96   0.763E-04    0.160E-04
DAV:  12    -0.102466663804E+03   -0.13032E-05   -0.38824E-08    80   0.508E-04    0.153E-04
DAV:  13    -0.102466664501E+03   -0.69700E-06   -0.16522E-08    88   0.320E-04
   8 F= -.10246666E+03 E0= -.10246666E+03  d E =-.729910E-02
       N       E                     dE             d eps       ncg     rms          rms(c)
DAV:   1    -0.102467074978E+03   -0.41117E-03   -0.31777E-02    88   0.830E-01    0.547E-02
DAV:   2    -0.102467118366E+03   -0.43388E-04   -0.81047E-04   112   0.113E-01    0.303E-02
DAV:   3    -0.102467108416E+03    0.99500E-05   -0.45617E-05   128   0.272E-02    0.147E-02
DAV:   4    -0.102467109417E+03   -0.10004E-05   -0.16320E-05   112   0.150E-02    0.412E-03
DAV:   5    -0.102467109240E+03    0.17608E-06   -0.14517E-06    96   0.502E-03
   9 F= -.10246711E+03 E0= -.10246711E+03  d E =-.774384E-02
       N       E                     dE             d eps       ncg     rms          rms(c)
DAV:   1    -0.102470247513E+03   -0.31381E-02   -0.12724E-01    84   0.165E+00    0.105E-01
DAV:   2    -0.102470349105E+03   -0.10159E-03   -0.24872E-03   120   0.203E-01    0.564E-02
DAV:   3    -0.102470300837E+03    0.48268E-04   -0.16286E-04   128   0.513E-02    0.262E-02
DAV:   4    -0.102470297043E+03    0.37944E-05   -0.54673E-05   112   0.271E-02    0.758E-03
DAV:   5    -0.102470296020E+03    0.10230E-05   -0.37626E-06   120   0.872E-03    0.482E-03
DAV:   6    -0.102470296863E+03   -0.84346E-06   -0.10369E-06    88   0.507E-03
  10 F= -.10247030E+03 E0= -.10247030E+03  d E =-.318762E-02
       N       E                     dE             d eps       ncg     rms          rms(c)
DAV:   1    -0.102471541895E+03   -0.12459E-02   -0.24046E-01    84   0.227E+00    0.144E-01
DAV:   2    -0.102471736503E+03   -0.19461E-03   -0.47222E-03   120   0.280E-01    0.776E-02
DAV:   3    -0.102471643576E+03    0.92927E-04   -0.30826E-04   128   0.707E-02    0.362E-02
DAV:   4    -0.102471636963E+03    0.66127E-05   -0.10369E-04   120   0.374E-02    0.104E-02
DAV:   5    -0.102471637077E+03   -0.11379E-06   -0.72537E-06   120   0.122E-02
  11 F= -.10247164E+03 E0= -.10247164E+03  d E =-.452784E-02
       N       E                     dE             d eps       ncg     rms          rms(c)
DAV:   1    -0.102473677434E+03   -0.20405E-02   -0.84455E-02    84   0.133E+00    0.799E-02
DAV:   2    -0.102473770023E+03   -0.92589E-04   -0.17063E-03   112   0.171E-01    0.473E-02
DAV:   3    -0.102473744966E+03    0.25057E-04   -0.95165E-05   128   0.414E-02    0.199E-02
DAV:   4    -0.102473751028E+03   -0.60627E-05   -0.34072E-05   120   0.209E-02    0.578E-03
DAV:   5    -0.102473754093E+03   -0.30648E-05   -0.25813E-06    96   0.701E-03    0.300E-03
DAV:   6    -0.102473757729E+03   -0.36355E-05   -0.98561E-07    88   0.390E-03    0.103E-03
DAV:   7    -0.102473761264E+03   -0.35349E-05   -0.26078E-07    88   0.223E-03    0.473E-04
DAV:   8    -0.102473765977E+03   -0.47133E-05   -0.24726E-07    80   0.185E-03    0.451E-04
DAV:   9    -0.102473768537E+03   -0.25601E-05   -0.12930E-07    88   0.124E-03    0.177E-04
DAV:  10    -0.102473771043E+03   -0.25060E-05   -0.10890E-07    80   0.949E-04    0.183E-04
DAV:  11    -0.102473771938E+03   -0.89516E-06   -0.35642E-08    88   0.559E-04
  12 F= -.10247377E+03 E0= -.10247377E+03  d E =-.213486E-02
       N       E                     dE             d eps       ncg     rms          rms(c)
DAV:   1    -0.102475351521E+03   -0.15805E-02   -0.16984E-01    84   0.189E+00    0.113E-01
DAV:   2    -0.102475524923E+03   -0.17340E-03   -0.34185E-03   104   0.241E-01    0.674E-02
DAV:   3    -0.102475463049E+03    0.61874E-04   -0.19191E-04   128   0.584E-02    0.283E-02
DAV:   4    -0.102475464283E+03   -0.12339E-05   -0.67829E-05   120   0.291E-02    0.817E-03
DAV:   5    -0.102475462927E+03    0.13558E-05   -0.49479E-06   112   0.935E-03    0.426E-03
DAV:   6    -0.102475462878E+03    0.49152E-07   -0.13157E-06    88   0.452E-03
  13 F= -.10247546E+03 E0= -.10247546E+03  d E =-.382580E-02
       N       E                     dE             d eps       ncg     rms          rms(c)
DAV:   1    -0.102473901287E+03    0.15616E-02   -0.67908E-01    84   0.377E+00    0.227E-01
DAV:   2    -0.102474604776E+03   -0.70349E-03   -0.13712E-02   112   0.483E-01    0.135E-01
DAV:   3    -0.102474354971E+03    0.24981E-03   -0.76635E-04   128   0.117E-01    0.568E-02
DAV:   4    -0.102474359952E+03   -0.49818E-05   -0.27225E-04   120   0.583E-02    0.165E-02
DAV:   5    -0.102474356560E+03    0.33925E-05   -0.20083E-05   112   0.188E-02    0.860E-03
DAV:   6    -0.102474358950E+03   -0.23901E-05   -0.60990E-06   112   0.918E-03    0.288E-03
DAV:   7    -0.102474364279E+03   -0.53292E-05   -0.70729E-07    88   0.401E-03    0.120E-03
DAV:   8    -0.102474371252E+03   -0.69726E-05   -0.48155E-07    88   0.301E-03    0.102E-03
DAV:   9    -0.102474378283E+03   -0.70309E-05   -0.34738E-07    88   0.218E-03    0.420E-04
DAV:  10    -0.102474386712E+03   -0.84292E-05   -0.53392E-07    88   0.221E-03    0.530E-04
DAV:  11    -0.102474388867E+03   -0.21549E-05   -0.12537E-07    88   0.117E-03    0.298E-04
DAV:  12    -0.102474392103E+03   -0.32363E-05   -0.97775E-08    88   0.885E-04    0.221E-04
DAV:  13    -0.102474393802E+03   -0.16992E-05   -0.51398E-08    88   0.548E-04    0.169E-04
DAV:  14    -0.102474395197E+03   -0.13951E-05   -0.30608E-08    88   0.419E-04    0.641E-05
DAV:  15    -0.102474395689E+03   -0.49110E-06   -0.10403E-08    88   0.253E-04
  14 F= -.10247440E+03 E0= -.10247440E+03  d E =-.275861E-02
       N       E                     dE             d eps       ncg     rms          rms(c)
DAV:   1    -0.102475534685E+03   -0.11395E-02   -0.31264E-01    84   0.256E+00    0.154E-01
DAV:   2    -0.102475864930E+03   -0.33025E-03   -0.62723E-03   112   0.327E-01    0.913E-02
DAV:   3    -0.102475759112E+03    0.10582E-03   -0.35385E-04   128   0.793E-02    0.382E-02
DAV:   4    -0.102475764329E+03   -0.52166E-05   -0.12315E-04   120   0.393E-02    0.109E-02
DAV:   5    -0.102475762065E+03    0.22643E-05   -0.88572E-06   112   0.125E-02    0.574E-03
DAV:   6    -0.102475762007E+03    0.57991E-07   -0.26656E-06   104   0.613E-03
  15 F= -.10247576E+03 E0= -.10247576E+03  d E =-.412493E-02
       N       E                     dE             d eps       ncg     rms          rms(c)
DAV:   1    -0.102477251427E+03   -0.14894E-02   -0.86722E-02    84   0.132E+00    0.106E-01
DAV:   2    -0.102477395258E+03   -0.14383E-03   -0.24321E-03   120   0.191E-01    0.511E-02
DAV:   3    -0.102477356027E+03    0.39231E-04   -0.12791E-04   128   0.449E-02    0.259E-02
DAV:   4    -0.102477352671E+03    0.33561E-05   -0.44286E-05   112   0.232E-02    0.764E-03
DAV:   5    -0.102477354635E+03   -0.19639E-05   -0.34180E-06   112   0.769E-03    0.488E-03
DAV:   6    -0.102477357263E+03   -0.26287E-05   -0.75270E-07    80   0.407E-03    0.174E-03
DAV:   7    -0.102477360315E+03   -0.30512E-05   -0.63898E-07    88   0.315E-03    0.619E-04
DAV:   8    -0.102477362554E+03   -0.22396E-05   -0.14546E-07    88   0.156E-03    0.412E-04
DAV:   9    -0.102477365125E+03   -0.25705E-05   -0.98701E-08    88   0.879E-04    0.202E-04
DAV:  10    -0.102477367984E+03   -0.28593E-05   -0.14882E-07    88   0.995E-04    0.162E-04
DAV:  11    -0.102477369236E+03   -0.12517E-05   -0.56270E-08    88   0.678E-04    0.129E-04
DAV:  12    -0.102477370017E+03   -0.78174E-06   -0.27441E-08    88   0.437E-04
  16 F= -.10247737E+03 E0= -.10247737E+03  d E =-.160801E-02
       N       E                     dE             d eps       ncg     rms          rms(c)
DAV:   1    -0.102477454855E+03   -0.85619E-04   -0.84015E-03    84   0.410E-01    0.329E-02
DAV:   2    -0.102477467990E+03   -0.13135E-04   -0.23515E-04   120   0.595E-02    0.159E-02
DAV:   3    -0.102477463814E+03    0.41757E-05   -0.12385E-05   128   0.140E-02    0.801E-03
DAV:   4    -0.102477463149E+03    0.66508E-06   -0.42902E-06   112   0.726E-03
  17 F= -.10247746E+03 E0= -.10247746E+03  d E =-.170114E-02
       N       E                     dE             d eps       ncg     rms          rms(c)
DAV:   1    -0.102477740568E+03   -0.27675E-03   -0.85429E-03    84   0.391E-01    0.360E-02
DAV:   2    -0.102477778723E+03   -0.38155E-04   -0.48384E-04   128   0.797E-02    0.185E-02
DAV:   3    -0.102477775493E+03    0.32300E-05   -0.96353E-06   120   0.133E-02    0.989E-03
DAV:   4    -0.102477774789E+03    0.70391E-06   -0.39875E-06   112   0.842E-03
  18 F= -.10247777E+03 E0= -.10247777E+03  d E =-.311640E-03
