       N       E                     dE             d eps       ncg     rms          rms(c)
DAV:   1     0.245681488411E+03    0.24568E+03   -0.10196E+04   120   0.484E+02
DAV:   2    -0.236237903684E+02   -0.26931E+03   -0.25508E+03   156   0.919E+01
DAV:   3    -0.103934245766E+03   -0.80310E+02   -0.80093E+02   120   0.555E+01
DAV:   4    -0.107887865772E+03   -0.39536E+01   -0.39407E+01   132   0.177E+01
DAV:   5    -0.107957070460E+03   -0.69205E-01   -0.69136E-01   156   0.261E+00    0.158E+01
DAV:   6    -0.104378776713E+03    0.35783E+01   -0.16447E+00   120   0.442E+00    0.911E+00
DAV:   7    -0.102547236835E+03    0.18315E+01   -0.44051E+00   120   0.644E+00    0.132E+00
DAV:   8    -0.102493131159E+03    0.54106E-01   -0.34012E-01   132   0.222E+00    0.702E-01
DAV:   9    -0.102459068315E+03    0.34063E-01   -0.64349E-02   132   0.687E-01    0.370E-01
DAV:  10    -0.102457573471E+03    0.14948E-02   -0.34993E-03   132   0.207E-01    0.152E-01
DAV:  11    -0.102456314244E+03    0.12592E-02   -0.62593E-03   120   0.214E-01    0.107E-01
DAV:  12    -0.102461387513E+03   -0.50733E-02   -0.14188E-03   132   0.103E-01    0.546E-02
DAV:  13    -0.102465334979E+03   -0.39475E-02   -0.20852E-03   132   0.110E-01    0.457E-02
DAV:  14    -0.102468171482E+03   -0.28365E-02   -0.15669E-04   144   0.416E-02    0.229E-02
DAV:  15    -0.102473666767E+03   -0.54953E-02   -0.65355E-04    96   0.627E-02    0.148E-02
DAV:  16    -0.102475034259E+03   -0.13675E-02   -0.82730E-05   132   0.287E-02    0.895E-03
DAV:  17    -0.102476471389E+03   -0.14371E-02   -0.14427E-04   120   0.256E-02    0.782E-03
DAV:  18    -0.102476670752E+03   -0.19936E-03   -0.40715E-06   144   0.509E-03    0.266E-03
DAV:  19    -0.102476979046E+03   -0.30829E-03   -0.14858E-05   108   0.856E-03    0.247E-03
DAV:  20    -0.102477025837E+03   -0.46791E-04   -0.81094E-07   108   0.304E-03    0.127E-03
DAV:  21    -0.102477071634E+03   -0.45797E-04   -0.14369E-06    96   0.294E-03    0.619E-04
DAV:  22    -0.102477079691E+03   -0.80570E-05   -0.13607E-07    96   0.123E-03    0.432E-04
DAV:  23    -0.102477084902E+03   -0.52117E-05   -0.10465E-07    96   0.793E-04    0.199E-04
DAV:  24    -0.102477088444E+03   -0.35413E-05   -0.53532E-08    84   0.602E-04    0.153E-04
DAV:  25    -0.102477089631E+03   -0.11877E-05   -0.80636E-09   108   0.343E-04    0.717E-05
DAV:  26    -0.102477090325E+03   -0.69377E-06    0.10658E-11    84   0.228E-04
   1 F= -.10247709E+03 E0= -.10247709E+03  d E =-.320639E-10
       N       E                     dE             d eps       ncg     rms          rms(c)
DAV:   1    -0.102473457036E+03    0.36326E-02   -0.81089E-02    96   0.789E-01    0.131E-01
DAV:   2    -0.102473803767E+03   -0.34673E-03   -0.40032E-03   132   0.204E-01    0.582E-02
DAV:   3    -0.102473786291E+03    0.17475E-04   -0.15738E-04   144   0.457E-02    0.304E-02
DAV:   4    -0.102473789393E+03   -0.31011E-05   -0.39425E-05   120   0.222E-02    0.910E-03
DAV:   5    -0.102473788494E+03    0.89816E-06   -0.65168E-06   132   0.963E-03
   2 F= -.10247379E+03 E0= -.10247379E+03  d E =-.400563E-10
       N       E                     dE             d eps       ncg     rms          rms(c)
DAV:   1    -0.102472875501E+03    0.91389E-03   -0.32369E-01    96   0.158E+00    0.266E-01
DAV:   2    -0.102474267814E+03   -0.13923E-02   -0.16061E-02   132   0.409E-01    0.117E-01
DAV:   3    -0.102474200328E+03    0.67486E-04   -0.62461E-04   144   0.907E-02    0.620E-02
DAV:   4    -0.102474217509E+03   -0.17181E-04   -0.15904E-04   120   0.442E-02    0.192E-02
DAV:   5    -0.102474214725E+03    0.27841E-05   -0.26067E-05   132   0.192E-02    0.103E-02
DAV:   6    -0.102474214313E+03    0.41103E-06   -0.53136E-06   132   0.774E-03
   3 F= -.10247421E+03 E0= -.10247421E+03  d E =-.358298E-10
       N       E                     dE             d eps       ncg     rms          rms(c)
DAV:   1    -0.102473349224E+03    0.86550E-03   -0.16386E-01    96   0.115E+00    0.191E-01
DAV:   2    -0.102473982511E+03   -0.63329E-03   -0.74664E-03   120   0.288E-01    0.806E-02
DAV:   3    -0.102473955642E+03    0.26869E-04   -0.30455E-04   144   0.638E-02    0.420E-02
DAV:   4    -0.102473966243E+03   -0.10601E-04   -0.68685E-05   108   0.300E-02    0.130E-02
DAV:   5    -0.102473966072E+03    0.17057E-06   -0.12128E-05   120   0.135E-02    0.716E-03
DAV:   6    -0.102473966339E+03   -0.26657E-06   -0.26544E-06   132   0.560E-03
   4 F= -.10247397E+03 E0= -.10247397E+03  d E =-.385320E-10
       N       E                     dE             d eps       ncg     rms          rms(c)
DAV:   1    -0.102472765341E+03    0.12007E-02   -0.32899E-01    96   0.164E+00    0.274E-01
DAV:   2    -0.102473992389E+03   -0.12270E-02   -0.14550E-02   108   0.408E-01    0.115E-01
DAV:   3    -0.102473936482E+03    0.55907E-04   -0.57673E-04   144   0.896E-02    0.618E-02
DAV:   4    -0.102473950267E+03   -0.13785E-04   -0.14422E-04   108   0.449E-02    0.181E-02
DAV:   5    -0.102473946831E+03    0.34363E-05   -0.29913E-05   132   0.212E-02    0.102E-02
DAV:   6    -0.102473946537E+03    0.29371E-06   -0.56860E-06   132   0.814E-03
   5 F= -.10247395E+03 E0= -.10247395E+03  d E =-.392680E-10
       N       E                     dE             d eps       ncg     rms          rms(c)
DAV:   1    -0.102472004187E+03    0.19426E-02   -0.16350E-01    96   0.117E+00    0.193E-01
DAV:   2    -0.102472834881E+03   -0.83069E-03   -0.93070E-03   120   0.322E-01    0.945E-02
DAV:   3    -0.102472786759E+03    0.48122E-04   -0.31437E-04   120   0.685E-02    0.513E-02
DAV:   4    -0.102472793371E+03   -0.66128E-05   -0.11895E-04   108   0.393E-02    0.130E-02
DAV:   5    -0.102472791928E+03    0.14431E-05   -0.20012E-05   120   0.168E-02    0.820E-03
DAV:   6    -0.102472793580E+03   -0.16522E-05   -0.35011E-06   120   0.613E-03    0.510E-03
DAV:   7    -0.102472798781E+03   -0.52006E-05   -0.44048E-07    84   0.241E-03    0.183E-03
DAV:   8    -0.102472803659E+03   -0.48777E-05   -0.38659E-07    96   0.217E-03    0.666E-04
DAV:   9    -0.102472808481E+03   -0.48225E-05   -0.29981E-07    96   0.168E-03    0.580E-04
DAV:  10    -0.102472816010E+03   -0.75286E-05   -0.64692E-07    96   0.182E-03    0.602E-04
DAV:  11    -0.102472816890E+03   -0.88050E-06   -0.37698E-08   108   0.767E-04
   6 F= -.10247282E+03 E0= -.10247282E+03  d E =-.390086E-10
       N       E                     dE             d eps       ncg     rms          rms(c)
DAV:   1    -0.102470571978E+03    0.22440E-02   -0.33148E-01    96   0.163E+00    0.274E-01
DAV:   2    -0.102472821610E+03   -0.22496E-02   -0.24602E-02   132   0.504E-01    0.169E-01
DAV:   3    -0.102472643170E+03    0.17844E-03   -0.69666E-04   132   0.107E-01    0.874E-02
DAV:   4    -0.102472648382E+03   -0.52114E-05   -0.45497E-04   108   0.705E-02    0.172E-02
DAV:   5    -0.102472637736E+03    0.10646E-04   -0.57892E-05   132   0.268E-02    0.124E-02
DAV:   6    -0.102472637493E+03    0.24307E-06   -0.11343E-05   108   0.904E-03    0.775E-03
DAV:   7    -0.102472647679E+03   -0.10187E-04   -0.10123E-06   108   0.347E-03    0.318E-03
DAV:   8    -0.102472664706E+03   -0.17027E-04   -0.21200E-06   120   0.484E-03    0.146E-03
DAV:   9    -0.102472676775E+03   -0.12069E-04   -0.91692E-07   108   0.238E-03    0.153E-03
DAV:  10    -0.102472696421E+03   -0.19646E-04   -0.10470E-06   108   0.214E-03    0.723E-04
DAV:  11    -0.102472701185E+03   -0.47639E-05   -0.13375E-07   108   0.959E-04    0.462E-04
DAV:  12    -0.102472709545E+03   -0.83593E-05   -0.25757E-07    96   0.109E-03    0.297E-04
DAV:  13    -0.102472712149E+03   -0.26041E-05   -0.70385E-08   108   0.558E-04    0.231E-04
DAV:  14    -0.102472714219E+03   -0.20702E-05   -0.18117E-08    84   0.379E-04    0.871E-05
DAV:  15    -0.102472715395E+03   -0.11764E-05   -0.13835E-08    96   0.295E-04    0.731E-05
DAV:  16    -0.102472716023E+03   -0.62802E-06    0.19133E-09    84   0.182E-04
   7 F= -.10247272E+03 E0= -.10247272E+03  d E =-.294633E-10
       N       E                     dE             d eps       ncg     rms          rms(c)
DAV:   1    -0.102471935809E+03    0.77959E-03   -0.19019E-01    96   0.127E+00    0.198E-01
DAV:   2    -0.102473269035E+03   -0.13332E-02   -0.14000E-02   120   0.400E-01    0.119E-01
DAV:   3    -0.102473189445E+03    0.79590E-04   -0.41027E-04   144   0.821E-02    0.649E-02
DAV:   4    -0.102473191869E+03   -0.24242E-05   -0.20703E-04   120   0.523E-02    0.133E-02
DAV:   5    -0.102473186665E+03    0.52045E-05   -0.34047E-05   132   0.201E-02    0.913E-03
DAV:   6    -0.102473187527E+03   -0.86184E-06   -0.38374E-06   132   0.622E-03
   8 F= -.10247319E+03 E0= -.10247319E+03  d E =-.405099E-10
       N       E                     dE             d eps       ncg     rms          rms(c)
DAV:   1    -0.102471257926E+03    0.19287E-02   -0.33834E-01    96   0.164E+00    0.259E-01
DAV:   2    -0.102473147793E+03   -0.18899E-02   -0.19623E-02   108   0.447E-01    0.153E-01
DAV:   3    -0.102473089629E+03    0.58164E-04   -0.54837E-04   120   0.856E-02    0.865E-02
DAV:   4    -0.102473087959E+03    0.16701E-05   -0.21120E-04   120   0.520E-02    0.173E-02
DAV:   5    -0.102473077917E+03    0.10042E-04   -0.37980E-05   144   0.225E-02    0.106E-02
DAV:   6    -0.102473077272E+03    0.64462E-06   -0.79242E-06   120   0.973E-03
   9 F= -.10247308E+03 E0= -.10247308E+03  d E =-.425370E-10
       N       E                     dE             d eps       ncg     rms          rms(c)
DAV:   1    -0.102471115601E+03    0.19623E-02   -0.17031E-01    96   0.116E+00    0.182E-01
DAV:   2    -0.102472250010E+03   -0.11344E-02   -0.11474E-02   132   0.352E-01    0.115E-01
DAV:   3    -0.102472228780E+03    0.21230E-04   -0.29555E-04   120   0.687E-02    0.619E-02
DAV:   4    -0.102472249543E+03   -0.20763E-04   -0.16571E-04   120   0.465E-02    0.120E-02
DAV:   5    -0.102472244926E+03    0.46167E-05   -0.30848E-05   132   0.199E-02    0.858E-03
DAV:   6    -0.102472245355E+03   -0.42881E-06   -0.68316E-06   108   0.765E-03
  10 F= -.10247225E+03 E0= -.10247225E+03  d E =-.415358E-10
       N       E                     dE             d eps       ncg     rms          rms(c)
DAV:   1    -0.102469960037E+03    0.22849E-02   -0.34950E-01    96   0.170E+00    0.287E-01
DAV:   2    -0.102472296202E+03   -0.23362E-02   -0.24092E-02   132   0.523E-01    0.177E-01
DAV:   3    -0.102472184879E+03    0.11132E-03   -0.64467E-04   120   0.109E-01    0.851E-02
DAV:   4    -0.102472216897E+03   -0.32018E-04   -0.43261E-04   108   0.724E-02    0.178E-02
DAV:   5    -0.102472200705E+03    0.16192E-04   -0.57012E-05   132   0.278E-02    0.108E-02
DAV:   6    -0.102472202620E+03   -0.19153E-05   -0.14508E-05   132   0.103E-02    0.551E-03
DAV:   7    -0.102472215217E+03   -0.12597E-04   -0.93649E-07   120   0.326E-03    0.253E-03
DAV:   8    -0.102472234423E+03   -0.19206E-04   -0.27325E-06    96   0.441E-03    0.128E-03
DAV:   9    -0.102472246871E+03   -0.12448E-04   -0.10934E-06   120   0.263E-03    0.125E-03
DAV:  10    -0.102472262860E+03   -0.15989E-04   -0.13148E-06    96   0.250E-03    0.347E-04
DAV:  11    -0.102472266743E+03   -0.38830E-05   -0.12448E-07   108   0.992E-04    0.321E-04
DAV:  12    -0.102472272366E+03   -0.56233E-05   -0.17196E-07    84   0.937E-04    0.132E-04
DAV:  13    -0.102472275080E+03   -0.27135E-05   -0.96145E-08    96   0.633E-04    0.130E-04
DAV:  14    -0.102472276983E+03   -0.19034E-05   -0.29303E-08    96   0.433E-04    0.680E-05
DAV:  15    -0.102472277511E+03   -0.52771E-06   -0.35979E-09   108   0.225E-04
  11 F= -.10247228E+03 E0= -.10247228E+03  d E =-.333179E-10
       N       E                     dE             d eps       ncg     rms          rms(c)
DAV:   1    -0.102472379526E+03   -0.10254E-03   -0.17190E-01    96   0.120E+00    0.195E-01
DAV:   2    -0.102473534748E+03   -0.11552E-02   -0.12011E-02   108   0.367E-01    0.120E-01
DAV:   3    -0.102473471996E+03    0.62751E-04   -0.31446E-04   144   0.727E-02    0.608E-02
DAV:   4    -0.102473476613E+03   -0.46169E-05   -0.19320E-04   120   0.495E-02    0.121E-02
DAV:   5    -0.102473470059E+03    0.65544E-05   -0.34036E-05   132   0.212E-02    0.845E-03
DAV:   6    -0.102473472455E+03   -0.23957E-05   -0.66708E-06   120   0.714E-03    0.502E-03
DAV:   7    -0.102473482209E+03   -0.97546E-05   -0.64590E-07   108   0.286E-03    0.215E-03
DAV:   8    -0.102473496258E+03   -0.14048E-04   -0.20441E-06    96   0.405E-03    0.117E-03
DAV:   9    -0.102473506423E+03   -0.10166E-04   -0.84837E-07   108   0.250E-03    0.104E-03
DAV:  10    -0.102473517139E+03   -0.10716E-04   -0.77543E-07    96   0.193E-03    0.436E-04
DAV:  11    -0.102473520507E+03   -0.33679E-05   -0.11005E-07   108   0.902E-04    0.288E-04
DAV:  12    -0.102473524489E+03   -0.39815E-05   -0.12988E-07    84   0.791E-04    0.147E-04
DAV:  13    -0.102473526662E+03   -0.21732E-05   -0.75698E-08    96   0.559E-04    0.151E-04
DAV:  14    -0.102473528111E+03   -0.14496E-05   -0.25484E-08   108   0.381E-04    0.636E-05
DAV:  15    -0.102473528483E+03   -0.37184E-06   -0.14924E-09   108   0.193E-04
  12 F= -.10247353E+03 E0= -.10247353E+03  d E =-.306100E-10
       N       E                     dE             d eps       ncg     rms          rms(c)
DAV:   1    -0.102472071657E+03    0.14565E-02   -0.33095E-01    96   0.160E+00    0.266E-01
DAV:   2    -0.102473788827E+03   -0.17172E-02   -0.18220E-02   132   0.432E-01    0.134E-01
DAV:   3    -0.102473735099E+03    0.53728E-04   -0.57429E-04   132   0.880E-02    0.722E-02
DAV:   4    -0.102473747020E+03   -0.11922E-04   -0.20405E-04   108   0.549E-02    0.161E-02
DAV:   5    -0.102473739881E+03    0.71391E-05   -0.47896E-05   132   0.260E-02    0.116E-02
DAV:   6    -0.102473739851E+03    0.30472E-07   -0.72936E-06   120   0.865E-03
  13 F= -.10247374E+03 E0= -.10247374E+03  d E =-.564338E-10
       N       E                     dE             d eps       ncg     rms          rms(c)
DAV:   1    -0.102471330898E+03    0.24090E-02   -0.16909E-01    96   0.129E+00    0.191E-01
DAV:   2    -0.102472627446E+03   -0.12965E-02   -0.13354E-02   132   0.404E-01    0.115E-01
DAV:   3    -0.102472572882E+03    0.54564E-04   -0.35414E-04   144   0.767E-02    0.673E-02
DAV:   4    -0.102472591187E+03   -0.18305E-04   -0.19187E-04   108   0.563E-02    0.135E-02
DAV:   5    -0.102472590373E+03    0.81354E-06   -0.55329E-05   144   0.275E-02    0.104E-02
DAV:   6    -0.102472589123E+03    0.12499E-05   -0.53645E-06   132   0.781E-03    0.744E-03
DAV:   7    -0.102472592677E+03   -0.35543E-05   -0.14826E-06   120   0.467E-03    0.287E-03
DAV:   8    -0.102472597751E+03   -0.50732E-05   -0.55968E-07   108   0.341E-03    0.784E-04
DAV:   9    -0.102472604417E+03   -0.66659E-05   -0.62266E-07    84   0.250E-03    0.105E-03
DAV:  10    -0.102472612881E+03   -0.84647E-05   -0.42868E-07    96   0.183E-03    0.378E-04
DAV:  11    -0.102472615205E+03   -0.23237E-05   -0.10031E-07   108   0.901E-04    0.346E-04
DAV:  12    -0.102472618094E+03   -0.28886E-05   -0.59214E-08    84   0.631E-04    0.194E-04
DAV:  13    -0.102472620895E+03   -0.28014E-05   -0.93489E-08   108   0.634E-04    0.141E-04
DAV:  14    -0.102472622091E+03   -0.11955E-05   -0.18127E-08   108   0.320E-04    0.106E-04
DAV:  15    -0.102472622968E+03   -0.87784E-06   -0.84077E-09   108   0.255E-04
  14 F= -.10247262E+03 E0= -.10247262E+03  d E =-.265647E-10
       N       E                     dE             d eps       ncg     rms          rms(c)
DAV:   1    -0.102470219647E+03    0.24024E-02   -0.35247E-01    96   0.181E+00    0.263E-01
DAV:   2    -0.102472566587E+03   -0.23469E-02   -0.24072E-02   132   0.568E-01    0.172E-01
DAV:   3    -0.102472452640E+03    0.11395E-03   -0.56358E-04   156   0.103E-01    0.934E-02
DAV:   4    -0.102472454743E+03   -0.21030E-05   -0.37388E-04   132   0.759E-02    0.170E-02
DAV:   5    -0.102472446892E+03    0.78507E-05   -0.86026E-05   132   0.344E-02    0.125E-02
DAV:   6    -0.102472451338E+03   -0.44456E-05   -0.15967E-05   132   0.118E-02    0.799E-03
DAV:   7    -0.102472471260E+03   -0.19922E-04   -0.22649E-06   132   0.533E-03    0.334E-03
DAV:   8    -0.102472498142E+03   -0.26883E-04   -0.27340E-06   132   0.468E-03    0.109E-03
DAV:   9    -0.102472520752E+03   -0.22610E-04   -0.23246E-06   120   0.373E-03    0.162E-03
DAV:  10    -0.102472542793E+03   -0.22040E-04   -0.20003E-06   108   0.320E-03    0.501E-04
DAV:  11    -0.102472548134E+03   -0.53412E-05   -0.19531E-07   108   0.122E-03    0.308E-04
DAV:  12    -0.102472554348E+03   -0.62144E-05   -0.24809E-07    84   0.103E-03    0.155E-04
DAV:  13    -0.102472556977E+03   -0.26292E-05   -0.94644E-08    96   0.605E-04    0.203E-04
DAV:  14    -0.102472558854E+03   -0.18769E-05   -0.33552E-08    96   0.428E-04    0.792E-05
DAV:  15    -0.102472559419E+03   -0.56446E-06   -0.38839E-09   120   0.224E-04
  15 F= -.10247256E+03 E0= -.10247256E+03  d E =-.501886E-10
       N       E                     dE             d eps       ncg     rms          rms(c)
DAV:   1    -0.102471897871E+03    0.66098E-03   -0.17551E-01    96   0.131E+00    0.186E-01
DAV:   2    -0.102473202714E+03   -0.13048E-02   -0.13298E-02   120   0.416E-01    0.129E-01
DAV:   3    -0.102473124686E+03    0.78028E-04   -0.30201E-04   144   0.771E-02    0.665E-02
DAV:   4    -0.102473128412E+03   -0.37259E-05   -0.22819E-04   120   0.581E-02    0.126E-02
DAV:   5    -0.102473120408E+03    0.80045E-05   -0.46820E-05   132   0.257E-02    0.868E-03
DAV:   6    -0.102473122677E+03   -0.22695E-05   -0.76806E-06   120   0.768E-03    0.475E-03
DAV:   7    -0.102473134215E+03   -0.11537E-04   -0.60739E-07   108   0.246E-03    0.222E-03
DAV:   8    -0.102473152109E+03   -0.17894E-04   -0.26432E-06    96   0.443E-03    0.137E-03
DAV:   9    -0.102473164314E+03   -0.12205E-04   -0.94180E-07   108   0.259E-03    0.112E-03
DAV:  10    -0.102473175009E+03   -0.10695E-04   -0.64204E-07    96   0.187E-03    0.385E-04
DAV:  11    -0.102473178892E+03   -0.38825E-05   -0.19039E-07   108   0.102E-03    0.230E-04
DAV:  12    -0.102473183192E+03   -0.43009E-05   -0.14647E-07    84   0.814E-04    0.144E-04
DAV:  13    -0.102473184679E+03   -0.14867E-05   -0.41039E-08    96   0.452E-04    0.131E-04
DAV:  14    -0.102473185982E+03   -0.13023E-05   -0.19069E-08    96   0.340E-04    0.712E-05
DAV:  15    -0.102473186394E+03   -0.41285E-06   -0.33491E-10   108   0.199E-04
  16 F= -.10247319E+03 E0= -.10247319E+03  d E =-.343590E-10
       N       E                     dE             d eps       ncg     rms          rms(c)
DAV:   1    -0.102471004032E+03    0.21819E-02   -0.34383E-01    96   0.184E+00    0.258E-01
DAV:   2    -0.102473029001E+03   -0.20250E-02   -0.20857E-02   108   0.508E-01    0.154E-01
DAV:   3    -0.102472939756E+03    0.89244E-04   -0.51983E-04   132   0.931E-02    0.817E-02
DAV:   4    -0.102472944493E+03   -0.47361E-05   -0.28799E-04   132   0.657E-02    0.159E-02
DAV:   5    -0.102472934848E+03    0.96450E-05   -0.61777E-05   132   0.297E-02    0.120E-02
DAV:   6    -0.102472934266E+03    0.58192E-06   -0.11428E-05   132   0.105E-02    0.742E-03
DAV:   7    -0.102472943539E+03   -0.92738E-05   -0.17464E-06   132   0.534E-03    0.293E-03
DAV:   8    -0.102472958139E+03   -0.14600E-04   -0.15321E-06   120   0.461E-03    0.121E-03
DAV:   9    -0.102472973773E+03   -0.15634E-04   -0.10473E-06    96   0.304E-03    0.136E-03
DAV:  10    -0.102472990551E+03   -0.16778E-04   -0.85908E-07    96   0.231E-03    0.574E-04
DAV:  11    -0.102472997248E+03   -0.66964E-05   -0.26895E-07   108   0.126E-03    0.324E-04
DAV:  12    -0.102473004441E+03   -0.71929E-05   -0.19730E-07    84   0.941E-04    0.174E-04
DAV:  13    -0.102473007380E+03   -0.29392E-05   -0.70546E-08    96   0.558E-04    0.211E-04
DAV:  14    -0.102473009962E+03   -0.25822E-05   -0.40507E-08    84   0.441E-04    0.956E-05
DAV:  15    -0.102473010711E+03   -0.74903E-06   -0.41589E-09   108   0.247E-04
  17 F= -.10247301E+03 E0= -.10247301E+03  d E =-.318808E-10
       N       E                     dE             d eps       ncg     rms          rms(c)
DAV:   1    -0.102472382556E+03    0.62741E-03   -0.17137E-01    96   0.129E+00    0.170E-01
DAV:   2    -0.102473485490E+03   -0.11029E-02   -0.11373E-02   132   0.378E-01    0.116E-01
DAV:   3    -0.102473436117E+03    0.49373E-04   -0.25926E-04   144   0.664E-02    0.637E-02
DAV:   4    -0.102473420766E+03    0.15351E-04   -0.13359E-04   132   0.442E-02    0.107E-02
DAV:   5    -0.102473417498E+03    0.32680E-05   -0.21436E-05   132   0.176E-02    0.775E-03
DAV:   6    -0.102473422481E+03   -0.49837E-05   -0.63090E-06   132   0.881E-03    0.459E-03
DAV:   7    -0.102473440016E+03   -0.17535E-04   -0.25564E-06   132   0.596E-03    0.160E-03
DAV:   8    -0.102473457781E+03   -0.17765E-04   -0.12942E-06   108   0.390E-03    0.105E-03
DAV:   9    -0.102473475206E+03   -0.17425E-04   -0.14477E-06    96   0.302E-03    0.937E-04
DAV:  10    -0.102473489691E+03   -0.14485E-04   -0.13468E-06   108   0.237E-03    0.374E-04
DAV:  11    -0.102473493049E+03   -0.33579E-05   -0.93822E-08   120   0.874E-04    0.241E-04
DAV:  12    -0.102473498181E+03   -0.51323E-05   -0.34794E-07    84   0.116E-03    0.155E-04
DAV:  13    -0.102473498997E+03   -0.81548E-06   -0.29566E-08   120   0.427E-04
  18 F= -.10247350E+03 E0= -.10247350E+03  d E =-.330422E-10
       N       E                     dE             d eps       ncg     rms          rms(c)
DAV:   1    -0.102471480283E+03    0.20179E-02   -0.33461E-01    96   0.180E+00    0.214E-01
DAV:   2    -0.102473395662E+03   -0.19154E-02   -0.19592E-02   132   0.484E-01    0.140E-01
DAV:   3    -0.102473351307E+03    0.44355E-04   -0.48956E-04   132   0.886E-02    0.693E-02
DAV:   4    -0.102473347426E+03    0.38810E-05   -0.17611E-04   132   0.520E-02    0.138E-02
DAV:   5    -0.102473336985E+03    0.10441E-04   -0.31640E-05   132   0.223E-02    0.891E-03
DAV:   6    -0.102473339007E+03   -0.20215E-05   -0.81730E-06   132   0.955E-03    0.530E-03
DAV:   7    -0.102473351521E+03   -0.12514E-04   -0.19144E-06   132   0.625E-03    0.197E-03
DAV:   8    -0.102473367968E+03   -0.16447E-04   -0.16262E-06   132   0.547E-03    0.154E-03
DAV:   9    -0.102473385005E+03   -0.17037E-04   -0.10443E-06    84   0.353E-03    0.126E-03
DAV:  10    -0.102473400172E+03   -0.15167E-04   -0.70770E-07    96   0.209E-03    0.522E-04
DAV:  11    -0.102473409331E+03   -0.91594E-05   -0.35648E-07    84   0.135E-03    0.320E-04
DAV:  12    -0.102473415853E+03   -0.65220E-05   -0.14476E-07    96   0.909E-04    0.174E-04
DAV:  13    -0.102473420398E+03   -0.45449E-05   -0.13597E-07    84   0.731E-04    0.151E-04
DAV:  14    -0.102473421876E+03   -0.14775E-05   -0.11279E-08   120   0.341E-04    0.817E-05
DAV:  15    -0.102473423416E+03   -0.15405E-05   -0.20486E-08    84   0.317E-04    0.458E-05
DAV:  16    -0.102473423878E+03   -0.46201E-06    0.16854E-09   108   0.159E-04
  19 F= -.10247342E+03 E0= -.10247342E+03  d E =-.386082E-10
       N       E                     dE             d eps       ncg     rms          rms(c)
DAV:   1    -0.102471143930E+03    0.22795E-02   -0.17018E-01    96   0.131E+00    0.163E-01
DAV:   2    -0.102472516126E+03   -0.13722E-02   -0.13936E-02   144   0.411E-01    0.117E-01
DAV:   3    -0.102472463649E+03    0.52477E-04   -0.28543E-04   156   0.680E-02    0.702E-02
DAV:   4    -0.102472452370E+03    0.11279E-04   -0.18415E-04   132   0.539E-02    0.112E-02
DAV:   5    -0.102472448836E+03    0.35338E-05   -0.55001E-05   132   0.270E-02    0.880E-03
DAV:   6    -0.102472449028E+03   -0.19173E-06   -0.57686E-06   144   0.797E-03
  20 F= -.10247245E+03 E0= -.10247245E+03  d E =-.322735E-10
       N       E                     dE             d eps       ncg     rms          rms(c)
DAV:   1    -0.102469946924E+03    0.25019E-02   -0.35231E-01    96   0.181E+00    0.261E-01
DAV:   2    -0.102472433515E+03   -0.24866E-02   -0.25045E-02   132   0.575E-01    0.177E-01
DAV:   3    -0.102472332723E+03    0.10079E-03   -0.56820E-04   144   0.105E-01    0.955E-02
DAV:   4    -0.102472354834E+03   -0.22111E-04   -0.41167E-04   120   0.790E-02    0.174E-02
DAV:   5    -0.102472344015E+03    0.10819E-04   -0.92958E-05   132   0.357E-02    0.125E-02
DAV:   6    -0.102472344431E+03   -0.41594E-06   -0.16447E-05   120   0.117E-02    0.803E-03
DAV:   7    -0.102472358441E+03   -0.14010E-04   -0.17589E-06   120   0.474E-03    0.347E-03
DAV:   8    -0.102472378371E+03   -0.19931E-04   -0.23529E-06   120   0.450E-03    0.981E-04
DAV:   9    -0.102472394223E+03   -0.15852E-04   -0.17122E-06   120   0.325E-03    0.152E-03
DAV:  10    -0.102472412744E+03   -0.18521E-04   -0.16613E-06    96   0.290E-03    0.456E-04
DAV:  11    -0.102472416504E+03   -0.37596E-05   -0.14597E-07   108   0.107E-03    0.324E-04
DAV:  12    -0.102472421633E+03   -0.51295E-05   -0.18213E-07    84   0.911E-04    0.139E-04
DAV:  13    -0.102472424488E+03   -0.28549E-05   -0.12376E-07    96   0.678E-04    0.185E-04
DAV:  14    -0.102472426239E+03   -0.17508E-05   -0.37085E-08    96   0.433E-04    0.988E-05
DAV:  15    -0.102472426866E+03   -0.62684E-06   -0.46730E-09    96   0.231E-04
  21 F= -.10247243E+03 E0= -.10247243E+03  d E =-.493433E-10
       N       E                     dE             d eps       ncg     rms          rms(c)
DAV:   1    -0.102471805590E+03    0.62065E-03   -0.17387E-01    96   0.130E+00    0.181E-01
DAV:   2    -0.102472743732E+03   -0.93814E-03   -0.98057E-03   120   0.355E-01    0.106E-01
DAV:   3    -0.102472708024E+03    0.35708E-04   -0.25599E-04   132   0.638E-02    0.553E-02
DAV:   4    -0.102472704608E+03    0.34162E-05   -0.10660E-04   120   0.397E-02    0.110E-02
DAV:   5    -0.102472698309E+03    0.62989E-05   -0.19581E-05   132   0.171E-02    0.698E-03
DAV:   6    -0.102472698313E+03   -0.38817E-08   -0.41917E-06   132   0.709E-03
  22 F= -.10247270E+03 E0= -.10247270E+03  d E =-.417302E-10
       N       E                     dE             d eps       ncg     rms          rms(c)
DAV:   1    -0.102470801408E+03    0.18969E-02   -0.34409E-01    96   0.181E+00    0.253E-01
DAV:   2    -0.102472973916E+03   -0.21725E-02   -0.21997E-02   132   0.531E-01    0.162E-01
DAV:   3    -0.102472911899E+03    0.62017E-04   -0.51589E-04   108   0.924E-02    0.925E-02
DAV:   4    -0.102472901146E+03    0.10753E-04   -0.26342E-04   120   0.633E-02    0.153E-02
DAV:   5    -0.102472893289E+03    0.78571E-05   -0.50341E-05   144   0.267E-02    0.114E-02
DAV:   6    -0.102472896913E+03   -0.36239E-05   -0.10370E-05   132   0.113E-02    0.702E-03
DAV:   7    -0.102472918427E+03   -0.21514E-04   -0.40717E-06   108   0.761E-03    0.252E-03
DAV:   8    -0.102472940932E+03   -0.22505E-04   -0.19047E-06   120   0.495E-03    0.127E-03
DAV:   9    -0.102472960293E+03   -0.19361E-04   -0.15635E-06    96   0.340E-03    0.129E-03
DAV:  10    -0.102472980161E+03   -0.19868E-04   -0.18764E-06    96   0.282E-03    0.511E-04
DAV:  11    -0.102472984074E+03   -0.39137E-05   -0.13730E-07   108   0.115E-03    0.432E-04
DAV:  12    -0.102472991799E+03   -0.77245E-05   -0.49033E-07    84   0.150E-03    0.176E-04
DAV:  13    -0.102472993278E+03   -0.14796E-05   -0.78643E-08   108   0.682E-04    0.199E-04
DAV:  14    -0.102472994620E+03   -0.13420E-05   -0.24473E-08    84   0.478E-04    0.114E-04
DAV:  15    -0.102472995522E+03   -0.90136E-06   -0.23411E-08    96   0.362E-04
  23 F= -.10247300E+03 E0= -.10247300E+03  d E =-.336493E-10
       N       E                     dE             d eps       ncg     rms          rms(c)
DAV:   1    -0.102472957130E+03    0.37491E-04   -0.17100E-01    96   0.127E+00    0.173E-01
DAV:   2    -0.102473793317E+03   -0.83619E-03   -0.86954E-03   108   0.330E-01    0.947E-02
DAV:   3    -0.102473771736E+03    0.21581E-04   -0.26171E-04   132   0.649E-02    0.487E-02
DAV:   4    -0.102473780295E+03   -0.85588E-05   -0.10094E-04   120   0.411E-02    0.107E-02
DAV:   5    -0.102473777006E+03    0.32881E-05   -0.22567E-05   132   0.182E-02    0.802E-03
DAV:   6    -0.102473776801E+03    0.20578E-06   -0.43256E-06   132   0.672E-03
  24 F= -.10247378E+03 E0= -.10247378E+03  d E =-.367163E-10
       N       E                     dE             d eps       ncg     rms          rms(c)
DAV:   1    -0.102472021571E+03    0.17554E-02   -0.33478E-01    96   0.176E+00    0.219E-01
DAV:   2    -0.102473746607E+03   -0.17250E-02   -0.17632E-02   132   0.460E-01    0.127E-01
DAV:   3    -0.102473733788E+03    0.12820E-04   -0.48306E-04   120   0.875E-02    0.648E-02
DAV:   4    -0.102473754166E+03   -0.20378E-04   -0.16414E-04   108   0.520E-02    0.140E-02
DAV:   5    -0.102473749882E+03    0.42832E-05   -0.35000E-05   132   0.229E-02    0.966E-03
DAV:   6    -0.102473751642E+03   -0.17597E-05   -0.69241E-06   132   0.878E-03    0.593E-03
DAV:   7    -0.102473758923E+03   -0.72814E-05   -0.99771E-07   108   0.465E-03    0.233E-03
DAV:   8    -0.102473769250E+03   -0.10327E-04   -0.15918E-06   108   0.491E-03    0.142E-03
DAV:   9    -0.102473781643E+03   -0.12393E-04   -0.79341E-07   108   0.324E-03    0.814E-04
DAV:  10    -0.102473790850E+03   -0.92073E-05   -0.57162E-07    84   0.213E-03    0.582E-04
DAV:  11    -0.102473795426E+03   -0.45759E-05   -0.14434E-07   108   0.119E-03    0.426E-04
DAV:  12    -0.102473801036E+03   -0.56100E-05   -0.15919E-07    84   0.947E-04    0.199E-04
DAV:  13    -0.102473803076E+03   -0.20403E-05   -0.43153E-08    96   0.503E-04    0.204E-04
DAV:  14    -0.102473805247E+03   -0.21707E-05   -0.33232E-08    84   0.423E-04    0.668E-05
DAV:  15    -0.102473806151E+03   -0.90387E-06   -0.10842E-08    96   0.276E-04
  25 F= -.10247381E+03 E0= -.10247381E+03  d E =-.406314E-10
       N       E                     dE             d eps       ncg     rms          rms(c)
DAV:   1    -0.102471710471E+03    0.20948E-02   -0.16709E-01    96   0.126E+00    0.154E-01
DAV:   2    -0.102472920424E+03   -0.12100E-02   -0.12587E-02   108   0.376E-01    0.105E-01
DAV:   3    -0.102472869392E+03    0.51032E-04   -0.31933E-04   144   0.704E-02    0.587E-02
DAV:   4    -0.102472860199E+03    0.91938E-05   -0.14072E-04   132   0.459E-02    0.107E-02
DAV:   5    -0.102472854638E+03    0.55609E-05   -0.34744E-05   132   0.213E-02    0.837E-03
DAV:   6    -0.102472855123E+03   -0.48572E-06   -0.50686E-06   132   0.709E-03
  26 F= -.10247286E+03 E0= -.10247286E+03  d E =-.598524E-10
       N       E                     dE             d eps       ncg     rms          rms(c)
DAV:   1    -0.102470742095E+03    0.21125E-02   -0.33741E-01    96   0.162E+00    0.240E-01
DAV:   2    -0.102472996873E+03   -0.22548E-02   -0.23910E-02   132   0.468E-01    0.160E-01
DAV:   3    -0.102472873384E+03    0.12349E-03   -0.64729E-04   132   0.978E-02    0.790E-02
DAV:   4    -0.102472892728E+03   -0.19344E-04   -0.36907E-04   108   0.625E-02    0.161E-02
DAV:   5    -0.102472881640E+03    0.11088E-04   -0.52354E-05   120   0.246E-02    0.107E-02
DAV:   6    -0.102472880656E+03    0.98330E-06   -0.10648E-05   120   0.848E-03    0.591E-03
DAV:   7    -0.102472887439E+03   -0.67827E-05   -0.72253E-07    84   0.306E-03    0.257E-03
DAV:   8    -0.102472899382E+03   -0.11943E-04   -0.17330E-06   120   0.393E-03    0.125E-03
DAV:   9    -0.102472909345E+03   -0.99634E-05   -0.70164E-07    96   0.216E-03    0.122E-03
DAV:  10    -0.102472922203E+03   -0.12858E-04   -0.71907E-07   108   0.178E-03    0.502E-04
DAV:  11    -0.102472925913E+03   -0.37097E-05   -0.86271E-08   108   0.816E-04    0.323E-04
DAV:  12    -0.102472931986E+03   -0.60728E-05   -0.18775E-07    84   0.911E-04    0.152E-04
DAV:  13    -0.102472934156E+03   -0.21699E-05   -0.44394E-08    96   0.456E-04    0.151E-04
DAV:  14    -0.102472936227E+03   -0.20710E-05   -0.26134E-08    84   0.382E-04    0.704E-05
DAV:  15    -0.102472936854E+03   -0.62756E-06   -0.42992E-09    96   0.218E-04
  27 F= -.10247294E+03 E0= -.10247294E+03  d E =-.271418E-10
       N       E                     dE             d eps       ncg     rms          rms(c)
DAV:   1    -0.102473128418E+03   -0.19219E-03   -0.16940E-01    96   0.114E+00    0.158E-01
DAV:   2    -0.102474159370E+03   -0.10310E-02   -0.10919E-02   120   0.326E-01    0.104E-01
DAV:   3    -0.102474103580E+03    0.55791E-04   -0.28059E-04   132   0.654E-02    0.565E-02
DAV:   4    -0.102474103687E+03   -0.10754E-06   -0.14202E-04   108   0.409E-02    0.122E-02
DAV:   5    -0.102474099349E+03    0.43385E-05   -0.22717E-05   132   0.170E-02    0.749E-03
DAV:   6    -0.102474100847E+03   -0.14979E-05   -0.43861E-06   120   0.625E-03    0.450E-03
DAV:   7    -0.102474108539E+03   -0.76927E-05   -0.66220E-07    96   0.275E-03    0.148E-03
DAV:   8    -0.102474116392E+03   -0.78530E-05   -0.51930E-07   120   0.218E-03    0.695E-04
DAV:   9    -0.102474125254E+03   -0.88615E-05   -0.60472E-07    96   0.194E-03    0.728E-04
DAV:  10    -0.102474134301E+03   -0.90468E-05   -0.71758E-07   108   0.181E-03    0.329E-04
DAV:  11    -0.102474136365E+03   -0.20648E-05   -0.54637E-08   120   0.757E-04    0.226E-04
DAV:  12    -0.102474138803E+03   -0.24375E-05   -0.72794E-08    84   0.599E-04    0.101E-04
DAV:  13    -0.102474140245E+03   -0.14423E-05   -0.41210E-08   108   0.417E-04    0.120E-04
DAV:  14    -0.102474141136E+03   -0.89036E-06   -0.11847E-08    84   0.271E-04
  28 F= -.10247414E+03 E0= -.10247414E+03  d E =-.669477E-10
       N       E                     dE             d eps       ncg     rms          rms(c)
DAV:   1    -0.102472653078E+03    0.14872E-02   -0.33501E-01    96   0.162E+00    0.193E-01
DAV:   2    -0.102474150971E+03   -0.14979E-02   -0.15791E-02   108   0.403E-01    0.104E-01
DAV:   3    -0.102474129486E+03    0.21485E-04   -0.46311E-04   132   0.828E-02    0.502E-02
DAV:   4    -0.102474143551E+03   -0.14065E-04   -0.12187E-04   120   0.418E-02    0.146E-02
DAV:   5    -0.102474140100E+03    0.34517E-05   -0.20174E-05   132   0.180E-02    0.776E-03
DAV:   6    -0.102474141581E+03   -0.14812E-05   -0.69093E-06   108   0.877E-03    0.371E-03
DAV:   7    -0.102474145525E+03   -0.39444E-05   -0.67575E-07    96   0.320E-03    0.149E-03
DAV:   8    -0.102474150879E+03   -0.53540E-05   -0.37265E-07    96   0.249E-03    0.730E-04
DAV:   9    -0.102474157965E+03   -0.70854E-05   -0.43610E-07    84   0.236E-03    0.429E-04
DAV:  10    -0.102474164064E+03   -0.60996E-05   -0.47092E-07    96   0.201E-03    0.248E-04
DAV:  11    -0.102474167176E+03   -0.31121E-05   -0.13318E-07   108   0.117E-03    0.231E-04
DAV:  12    -0.102474168906E+03   -0.17300E-05   -0.37223E-08    84   0.541E-04    0.153E-04
DAV:  13    -0.102474170529E+03   -0.16224E-05   -0.37708E-08    96   0.436E-04    0.686E-05
DAV:  14    -0.102474171450E+03   -0.92170E-06   -0.14663E-08    84   0.287E-04
  29 F= -.10247417E+03 E0= -.10247417E+03  d E =-.479076E-10
       N       E                     dE             d eps       ncg     rms          rms(c)
DAV:   1    -0.102473139966E+03    0.10306E-02   -0.16823E-01    96   0.116E+00    0.145E-01
DAV:   2    -0.102473894857E+03   -0.75489E-03   -0.80343E-03   108   0.289E-01    0.761E-02
DAV:   3    -0.102473879367E+03    0.15489E-04   -0.24089E-04   132   0.591E-02    0.382E-02
DAV:   4    -0.102473887169E+03   -0.78016E-05   -0.67529E-05   120   0.310E-02    0.107E-02
DAV:   5    -0.102473885415E+03    0.17542E-05   -0.12267E-05   132   0.139E-02    0.581E-03
DAV:   6    -0.102473886142E+03   -0.72753E-06   -0.33942E-06   108   0.616E-03
  30 F= -.10247389E+03 E0= -.10247389E+03  d E =-.228418E-10
       N       E                     dE             d eps       ncg     rms          rms(c)
DAV:   1    -0.102472142387E+03    0.17430E-02   -0.34120E-01    96   0.161E+00    0.264E-01
DAV:   2    -0.102473672936E+03   -0.15305E-02   -0.16748E-02   120   0.422E-01    0.123E-01
DAV:   3    -0.102473621041E+03    0.51895E-04   -0.53023E-04   120   0.854E-02    0.705E-02
DAV:   4    -0.102473635511E+03   -0.14469E-04   -0.17472E-04   108   0.475E-02    0.188E-02
DAV:   5    -0.102473631610E+03    0.39007E-05   -0.33367E-05   132   0.210E-02    0.944E-03
DAV:   6    -0.102473631971E+03   -0.36085E-06   -0.50717E-06   108   0.738E-03
  31 F= -.10247363E+03 E0= -.10247363E+03  d E =-.796071E-10
       N       E                     dE             d eps       ncg     rms          rms(c)
DAV:   1    -0.102471443990E+03    0.21876E-02   -0.16948E-01    96   0.123E+00    0.176E-01
DAV:   2    -0.102472694161E+03   -0.12502E-02   -0.12888E-02   132   0.378E-01    0.106E-01
DAV:   3    -0.102472648852E+03    0.45309E-04   -0.31862E-04   108   0.689E-02    0.595E-02
DAV:   4    -0.102472653111E+03   -0.42590E-05   -0.14311E-04   120   0.430E-02    0.117E-02
DAV:   5    -0.102472648240E+03    0.48708E-05   -0.27963E-05   120   0.189E-02    0.754E-03
DAV:   6    -0.102472647465E+03    0.77590E-06   -0.43201E-06   120   0.674E-03
  32 F= -.10247265E+03 E0= -.10247265E+03  d E =-.320410E-10
       N       E                     dE             d eps       ncg     rms          rms(c)
DAV:   1    -0.102470489500E+03    0.21587E-02   -0.35010E-01    96   0.165E+00    0.225E-01
DAV:   2    -0.102472808809E+03   -0.23193E-02   -0.23057E-02   132   0.485E-01    0.164E-01
DAV:   3    -0.102472757499E+03    0.51310E-04   -0.47959E-04   132   0.828E-02    0.932E-02
DAV:   4    -0.102472732661E+03    0.24839E-04   -0.28155E-04   108   0.570E-02    0.148E-02
DAV:   5    -0.102472721710E+03    0.10951E-04   -0.51840E-05   132   0.236E-02    0.102E-02
DAV:   6    -0.102472723658E+03   -0.19482E-05   -0.14237E-05   132   0.109E-02    0.623E-03
DAV:   7    -0.102472745714E+03   -0.22056E-04   -0.42381E-06   132   0.653E-03    0.222E-03
DAV:   8    -0.102472770555E+03   -0.24841E-04   -0.23240E-06    96   0.443E-03    0.121E-03
DAV:   9    -0.102472795889E+03   -0.25334E-04   -0.27973E-06   120   0.370E-03    0.121E-03
DAV:  10    -0.102472812953E+03   -0.17064E-04   -0.13941E-06   120   0.241E-03    0.462E-04
DAV:  11    -0.102472818734E+03   -0.57806E-05   -0.22761E-07    84   0.107E-03    0.259E-04
DAV:  12    -0.102472824401E+03   -0.56673E-05   -0.30565E-07    96   0.108E-03    0.153E-04
DAV:  13    -0.102472826263E+03   -0.18620E-05   -0.60701E-08   108   0.543E-04    0.108E-04
DAV:  14    -0.102472827346E+03   -0.10830E-05   -0.13171E-08    96   0.315E-04    0.524E-05
DAV:  15    -0.102472827904E+03   -0.55789E-06   -0.24277E-09    96   0.205E-04
  33 F= -.10247283E+03 E0= -.10247283E+03  d E =-.490923E-10
       N       E                     dE             d eps       ncg     rms          rms(c)
DAV:   1    -0.102473062126E+03   -0.23478E-03   -0.17299E-01    96   0.117E+00    0.151E-01
DAV:   2    -0.102474097283E+03   -0.10352E-02   -0.10496E-02   108   0.330E-01    0.103E-01
DAV:   3    -0.102474069100E+03    0.28183E-04   -0.22276E-04   132   0.593E-02    0.552E-02
DAV:   4    -0.102474068877E+03    0.22295E-06   -0.12570E-04   108   0.424E-02    0.102E-02
DAV:   5    -0.102474064040E+03    0.48373E-05   -0.30722E-05   132   0.200E-02    0.745E-03
DAV:   6    -0.102474063784E+03    0.25595E-06   -0.52616E-06   132   0.670E-03
  34 F= -.10247406E+03 E0= -.10247406E+03  d E =-.478809E-10
       N       E                     dE             d eps       ncg     rms          rms(c)
DAV:   1    -0.102472468720E+03    0.15953E-02   -0.34132E-01    96   0.160E+00    0.192E-01
DAV:   2    -0.102473983043E+03   -0.15143E-02   -0.15093E-02   132   0.388E-01    0.112E-01
DAV:   3    -0.102474011507E+03   -0.28464E-04   -0.41723E-04   108   0.815E-02    0.534E-02
DAV:   4    -0.102474043184E+03   -0.31677E-04   -0.13863E-04   132   0.497E-02    0.131E-02
DAV:   5    -0.102474042800E+03    0.38449E-06   -0.30808E-05   132   0.206E-02    0.901E-03
DAV:   6    -0.102474044398E+03   -0.15985E-05   -0.60420E-06   132   0.778E-03    0.455E-03
DAV:   7    -0.102474048167E+03   -0.37688E-05   -0.75936E-07    84   0.379E-03    0.163E-03
DAV:   8    -0.102474053480E+03   -0.53134E-05   -0.61920E-07    96   0.332E-03    0.983E-04
DAV:   9    -0.102474062882E+03   -0.94021E-05   -0.65286E-07    84   0.350E-03    0.347E-04
DAV:  10    -0.102474066911E+03   -0.40284E-05   -0.41956E-07    96   0.206E-03    0.419E-04
DAV:  11    -0.102474068076E+03   -0.11653E-05   -0.39709E-08   108   0.800E-04    0.371E-04
DAV:  12    -0.102474071065E+03   -0.29894E-05   -0.55277E-08    84   0.711E-04    0.156E-04
DAV:  13    -0.102474074029E+03   -0.29639E-05   -0.11249E-07    96   0.735E-04    0.200E-04
DAV:  14    -0.102474074995E+03   -0.96613E-06   -0.12677E-08    96   0.430E-04
  35 F= -.10247407E+03 E0= -.10247407E+03  d E =-.469513E-10
       N       E                     dE             d eps       ncg     rms          rms(c)
DAV:   1    -0.102471210869E+03    0.28632E-02   -0.17218E-01    96   0.116E+00    0.145E-01
DAV:   2    -0.102472145939E+03   -0.93507E-03   -0.95211E-03   108   0.315E-01    0.952E-02
DAV:   3    -0.102472130104E+03    0.15835E-04   -0.23053E-04   144   0.615E-02    0.475E-02
DAV:   4    -0.102472138388E+03   -0.82836E-05   -0.11349E-04   108   0.419E-02    0.104E-02
DAV:   5    -0.102472134846E+03    0.35418E-05   -0.26387E-05   132   0.190E-02    0.760E-03
DAV:   6    -0.102472134612E+03    0.23358E-06   -0.51290E-06   132   0.674E-03
  36 F= -.10247213E+03 E0= -.10247213E+03  d E =-.642664E-10
       N       E                     dE             d eps       ncg     rms          rms(c)
DAV:   1    -0.102469917373E+03    0.22175E-02   -0.35498E-01    96   0.165E+00    0.241E-01
DAV:   2    -0.102472586852E+03   -0.26695E-02   -0.26796E-02   132   0.510E-01    0.178E-01
DAV:   3    -0.102472481119E+03    0.10573E-03   -0.57207E-04   120   0.955E-02    0.950E-02
DAV:   4    -0.102472486645E+03   -0.55260E-05   -0.43299E-04   120   0.720E-02    0.166E-02
DAV:   5    -0.102472474031E+03    0.12614E-04   -0.90710E-05   120   0.319E-02    0.122E-02
DAV:   6    -0.102472474827E+03   -0.79559E-06   -0.17801E-05   120   0.106E-02    0.768E-03
DAV:   7    -0.102472493312E+03   -0.18485E-04   -0.22110E-06   132   0.464E-03    0.334E-03
DAV:   8    -0.102472519078E+03   -0.25766E-04   -0.32887E-06   108   0.465E-03    0.120E-03
DAV:   9    -0.102472538443E+03   -0.19365E-04   -0.22251E-06   120   0.329E-03    0.181E-03
DAV:  10    -0.102472555947E+03   -0.17504E-04   -0.13665E-06    96   0.258E-03    0.601E-04
DAV:  11    -0.102472561638E+03   -0.56909E-05   -0.26449E-07   108   0.119E-03    0.321E-04
DAV:  12    -0.102472568093E+03   -0.64550E-05   -0.35472E-07    84   0.111E-03    0.193E-04
DAV:  13    -0.102472569682E+03   -0.15894E-05   -0.57404E-08    96   0.480E-04    0.244E-04
DAV:  14    -0.102472571433E+03   -0.17508E-05   -0.39683E-08    84   0.446E-04    0.856E-05
DAV:  15    -0.102472571954E+03   -0.52067E-06   -0.63006E-09   108   0.244E-04
  37 F= -.10247257E+03 E0= -.10247257E+03  d E =-.251430E-10
       N       E                     dE             d eps       ncg     rms          rms(c)
DAV:   1    -0.102472793332E+03   -0.22190E-03   -0.17653E-01    96   0.127E+00    0.151E-01
DAV:   2    -0.102474046515E+03   -0.12532E-02   -0.13881E-02   108   0.370E-01    0.105E-01
DAV:   3    -0.102473995726E+03    0.50789E-04   -0.27583E-04   144   0.625E-02    0.625E-02
DAV:   4    -0.102473975203E+03    0.20523E-04   -0.13157E-04   108   0.477E-02    0.940E-03
DAV:   5    -0.102473970684E+03    0.45188E-05   -0.45713E-05   144   0.244E-02    0.792E-03
DAV:   6    -0.102473968715E+03    0.19696E-05   -0.42229E-06   108   0.682E-03    0.580E-03
DAV:   7    -0.102473973654E+03   -0.49397E-05   -0.19862E-06   120   0.512E-03    0.235E-03
DAV:   8    -0.102473984267E+03   -0.10613E-04   -0.10476E-06    84   0.407E-03    0.101E-03
DAV:   9    -0.102473995977E+03   -0.11710E-04   -0.10767E-06   108   0.293E-03    0.153E-03
DAV:  10    -0.102474005274E+03   -0.92968E-05   -0.32854E-07    84   0.174E-03    0.518E-04
DAV:  11    -0.102474010987E+03   -0.57132E-05   -0.25208E-07    96   0.113E-03    0.249E-04
DAV:  12    -0.102474015943E+03   -0.49563E-05   -0.12815E-07    84   0.765E-04    0.227E-04
DAV:  13    -0.102474018146E+03   -0.22024E-05   -0.36348E-08    96   0.424E-04    0.173E-04
DAV:  14    -0.102474019980E+03   -0.18346E-05   -0.23186E-08    84   0.370E-04    0.563E-05
DAV:  15    -0.102474020694E+03   -0.71391E-06   -0.39717E-09    96   0.229E-04
  38 F= -.10247402E+03 E0= -.10247402E+03  d E =-.826183E-10
       N       E                     dE             d eps       ncg     rms          rms(c)
DAV:   1    -0.102472586641E+03    0.14333E-02   -0.41473E-01    96   0.177E+00    0.188E-01
DAV:   2    -0.102474050226E+03   -0.14636E-02   -0.17358E-02   120   0.392E-01    0.992E-02
DAV:   3    -0.102473973630E+03    0.76596E-04   -0.36089E-04   144   0.681E-02    0.525E-02
DAV:   4    -0.102473942527E+03    0.31103E-04   -0.11676E-04   132   0.433E-02    0.113E-02
DAV:   5    -0.102473938356E+03    0.41707E-05   -0.27830E-05   132   0.200E-02    0.787E-03
DAV:   6    -0.102473942310E+03   -0.39532E-05   -0.48769E-06   132   0.728E-03    0.457E-03
DAV:   7    -0.102473953004E+03   -0.10694E-04   -0.11417E-06   108   0.379E-03    0.163E-03
DAV:   8    -0.102473965156E+03   -0.12153E-04   -0.91457E-07   108   0.306E-03    0.104E-03
DAV:   9    -0.102473982128E+03   -0.16972E-04   -0.13614E-06    96   0.303E-03    0.511E-04
DAV:  10    -0.102473992316E+03   -0.10188E-04   -0.83621E-07   108   0.213E-03    0.473E-04
DAV:  11    -0.102473995790E+03   -0.34734E-05   -0.77880E-08   108   0.938E-04    0.237E-04
DAV:  12    -0.102474000033E+03   -0.42431E-05   -0.19718E-07    84   0.933E-04    0.170E-04
DAV:  13    -0.102474001283E+03   -0.12504E-05   -0.28910E-08   108   0.416E-04    0.119E-04
DAV:  14    -0.102474002517E+03   -0.12338E-05   -0.21392E-08    84   0.349E-04    0.446E-05
DAV:  15    -0.102474003030E+03   -0.51265E-06   -0.33450E-09   108   0.209E-04
  39 F= -.10247400E+03 E0= -.10247400E+03  d E =-.259603E-10
       N       E                     dE             d eps       ncg     rms          rms(c)
DAV:   1    -0.102472993369E+03    0.10091E-02   -0.20587E-01    96   0.124E+00    0.146E-01
DAV:   2    -0.102473649809E+03   -0.65644E-03   -0.78545E-03    96   0.263E-01    0.613E-02
DAV:   3    -0.102473622549E+03    0.27260E-04   -0.18313E-04   144   0.471E-02    0.323E-02
DAV:   4    -0.102473612888E+03    0.96607E-05   -0.44217E-05   144   0.261E-02    0.863E-03
DAV:   5    -0.102473610370E+03    0.25185E-05   -0.96063E-06   132   0.122E-02    0.516E-03
DAV:   6    -0.102473610289E+03    0.80704E-07   -0.20215E-06   132   0.513E-03
  40 F= -.10247361E+03 E0= -.10247361E+03  d E =-.608437E-10
       N       E                     dE             d eps       ncg     rms          rms(c)
DAV:   1    -0.102471660411E+03    0.19500E-02   -0.39584E-01    96   0.178E+00    0.215E-01
DAV:   2    -0.102473181465E+03   -0.15211E-02   -0.18405E-02   132   0.423E-01    0.117E-01
DAV:   3    -0.102473068471E+03    0.11299E-03   -0.33116E-04   120   0.674E-02    0.597E-02
DAV:   4    -0.102473031597E+03    0.36873E-04   -0.13943E-04   120   0.442E-02    0.126E-02
DAV:   5    -0.102473020668E+03    0.10930E-04   -0.21313E-05   132   0.178E-02    0.757E-03
DAV:   6    -0.102473020942E+03   -0.27414E-06   -0.63607E-06   132   0.811E-03
  41 F= -.10247302E+03 E0= -.10247302E+03  d E =-.357242E-10
       N       E                     dE             d eps       ncg     rms          rms(c)
DAV:   1    -0.102473735641E+03   -0.71497E-03   -0.20345E-01    96   0.125E+00    0.158E-01
DAV:   2    -0.102474457153E+03   -0.72151E-03   -0.84707E-03   132   0.283E-01    0.715E-02
DAV:   3    -0.102474432907E+03    0.24246E-04   -0.16101E-04   120   0.450E-02    0.381E-02
DAV:   4    -0.102474440946E+03   -0.80391E-05   -0.55576E-05   108   0.286E-02    0.914E-03
DAV:   5    -0.102474442848E+03   -0.19015E-05   -0.10938E-05   132   0.128E-02    0.549E-03
DAV:   6    -0.102474444271E+03   -0.14232E-05   -0.23053E-06   108   0.537E-03    0.286E-03
DAV:   7    -0.102474446649E+03   -0.23784E-05   -0.40750E-07   108   0.258E-03    0.979E-04
DAV:   8    -0.102474448695E+03   -0.20461E-05   -0.19472E-07    84   0.173E-03    0.509E-04
DAV:   9    -0.102474451721E+03   -0.30254E-05   -0.17948E-07    96   0.144E-03    0.285E-04
DAV:  10    -0.102474454173E+03   -0.24520E-05   -0.16070E-07    96   0.110E-03    0.170E-04
DAV:  11    -0.102474455303E+03   -0.11303E-05   -0.33238E-08   108   0.594E-04    0.141E-04
DAV:  12    -0.102474456386E+03   -0.10825E-05   -0.23907E-08    84   0.393E-04    0.680E-05
DAV:  13    -0.102474457158E+03   -0.77195E-06   -0.16859E-08    96   0.299E-04
  42 F= -.10247446E+03 E0= -.10247446E+03  d E =-.255019E-10
       N       E                     dE             d eps       ncg     rms          rms(c)
DAV:   1    -0.102472898523E+03    0.15579E-02   -0.42098E-01   120   0.180E+00    0.218E-01
DAV:   2    -0.102474211164E+03   -0.13126E-02   -0.15861E-02   132   0.375E-01    0.862E-02
DAV:   3    -0.102474152380E+03    0.58784E-04   -0.36680E-04   132   0.656E-02    0.453E-02
DAV:   4    -0.102474136682E+03    0.15698E-04   -0.83548E-05   120   0.366E-02    0.131E-02
DAV:   5    -0.102474133538E+03    0.31443E-05   -0.18790E-05   144   0.174E-02    0.776E-03
DAV:   6    -0.102474134558E+03   -0.10209E-05   -0.40670E-06   132   0.727E-03    0.424E-03
DAV:   7    -0.102474138253E+03   -0.36949E-05   -0.40754E-07    96   0.285E-03    0.158E-03
DAV:   8    -0.102474143201E+03   -0.49480E-05   -0.34381E-07    96   0.244E-03    0.730E-04
DAV:   9    -0.102474151533E+03   -0.83314E-05   -0.56979E-07    84   0.268E-03    0.433E-04
DAV:  10    -0.102474156536E+03   -0.50038E-05   -0.41481E-07    96   0.187E-03    0.358E-04
DAV:  11    -0.102474158512E+03   -0.19756E-05   -0.60964E-08   108   0.896E-04    0.299E-04
DAV:  12    -0.102474160599E+03   -0.20874E-05   -0.47805E-08    84   0.618E-04    0.117E-04
DAV:  13    -0.102474161902E+03   -0.13024E-05   -0.31595E-08    96   0.428E-04    0.149E-04
DAV:  14    -0.102474162804E+03   -0.90250E-06   -0.12423E-08   108   0.318E-04
  43 F= -.10247416E+03 E0= -.10247416E+03  d E =-.542341E-10
       N       E                     dE             d eps       ncg     rms          rms(c)
DAV:   1    -0.102473107456E+03    0.10544E-02   -0.20411E-01    96   0.129E+00    0.155E-01
DAV:   2    -0.102474183519E+03   -0.10761E-02   -0.12525E-02   120   0.296E-01    0.666E-02
DAV:   3    -0.102474160553E+03    0.22966E-04   -0.25456E-04   144   0.493E-02    0.367E-02
DAV:   4    -0.102474150452E+03    0.10101E-04   -0.46159E-05   108   0.240E-02    0.104E-02
DAV:   5    -0.102474147011E+03    0.34411E-05   -0.68167E-06   132   0.106E-02    0.543E-03
DAV:   6    -0.102474147335E+03   -0.32384E-06   -0.23026E-06   120   0.619E-03
  44 F= -.10247415E+03 E0= -.10247415E+03  d E =-.509632E-11
       N       E                     dE             d eps       ncg     rms          rms(c)
DAV:   1    -0.102472689487E+03    0.14575E-02   -0.41600E-01    96   0.176E+00    0.188E-01
DAV:   2    -0.102474134288E+03   -0.14448E-02   -0.16909E-02   120   0.385E-01    0.952E-02
DAV:   3    -0.102474081313E+03    0.52976E-04   -0.36586E-04   144   0.680E-02    0.502E-02
DAV:   4    -0.102474058875E+03    0.22437E-04   -0.11072E-04   108   0.421E-02    0.113E-02
DAV:   5    -0.102474053406E+03    0.54689E-05   -0.26221E-05   132   0.194E-02    0.781E-03
DAV:   6    -0.102474054202E+03   -0.79551E-06   -0.42179E-06   132   0.698E-03
  45 F= -.10247405E+03 E0= -.10247405E+03  d E =-.301394E-10
       N       E                     dE             d eps       ncg     rms          rms(c)
DAV:   1    -0.102472450134E+03    0.16033E-02   -0.20062E-01    96   0.124E+00    0.139E-01
DAV:   2    -0.102473255927E+03   -0.80579E-03   -0.95687E-03   144   0.294E-01    0.847E-02
DAV:   3    -0.102473207729E+03    0.48198E-04   -0.15910E-04   108   0.472E-02    0.438E-02
DAV:   4    -0.102473196531E+03    0.11198E-04   -0.77664E-05   120   0.332E-02    0.823E-03
DAV:   5    -0.102473190680E+03    0.58513E-05   -0.13221E-05   132   0.136E-02    0.550E-03
DAV:   6    -0.102473189458E+03    0.12222E-05   -0.32446E-06   108   0.552E-03    0.287E-03
DAV:   7    -0.102473192024E+03   -0.25665E-05   -0.64072E-07   108   0.290E-03    0.110E-03
DAV:   8    -0.102473197072E+03   -0.50475E-05   -0.49764E-07    84   0.213E-03    0.763E-04
DAV:   9    -0.102473204212E+03   -0.71403E-05   -0.41149E-07    96   0.156E-03    0.449E-04
DAV:  10    -0.102473210550E+03   -0.63377E-05   -0.34896E-07    84   0.119E-03    0.299E-04
DAV:  11    -0.102473212614E+03   -0.20643E-05   -0.40377E-08   108   0.566E-04    0.178E-04
DAV:  12    -0.102473215974E+03   -0.33597E-05   -0.10019E-07    84   0.671E-04    0.842E-05
DAV:  13    -0.102473217019E+03   -0.10454E-05   -0.18535E-08   108   0.341E-04    0.698E-05
DAV:  14    -0.102473217944E+03   -0.92492E-06   -0.65884E-09    84   0.251E-04
  46 F= -.10247322E+03 E0= -.10247322E+03  d E =-.362545E-10
       N       E                     dE             d eps       ncg     rms          rms(c)
DAV:   1    -0.102472311275E+03    0.90574E-03   -0.39763E-01    96   0.179E+00    0.222E-01
DAV:   2    -0.102473826837E+03   -0.15156E-02   -0.18479E-02   108   0.417E-01    0.114E-01
DAV:   3    -0.102473718440E+03    0.10840E-03   -0.35709E-04   156   0.683E-02    0.598E-02
DAV:   4    -0.102473672503E+03    0.45938E-04   -0.11304E-04   120   0.409E-02    0.122E-02
DAV:   5    -0.102473664845E+03    0.76581E-05   -0.22929E-05   132   0.180E-02    0.718E-03
DAV:   6    -0.102473671879E+03   -0.70344E-05   -0.57948E-06   120   0.773E-03    0.407E-03
DAV:   7    -0.102473690388E+03   -0.18509E-04   -0.19972E-06   120   0.436E-03    0.162E-03
DAV:   8    -0.102473709523E+03   -0.19135E-04   -0.14201E-06    96   0.310E-03    0.107E-03
DAV:   9    -0.102473727227E+03   -0.17705E-04   -0.12997E-06   108   0.252E-03    0.708E-04
DAV:  10    -0.102473743719E+03   -0.16492E-04   -0.16461E-06   108   0.240E-03    0.379E-04
DAV:  11    -0.102473747028E+03   -0.33093E-05   -0.65381E-08   108   0.749E-04    0.241E-04
DAV:  12    -0.102473752301E+03   -0.52724E-05   -0.23045E-07    84   0.959E-04    0.130E-04
DAV:  13    -0.102473754034E+03   -0.17331E-05   -0.53120E-08    96   0.474E-04    0.934E-05
DAV:  14    -0.102473755346E+03   -0.13118E-05   -0.16594E-08    96   0.320E-04    0.418E-05
DAV:  15    -0.102473755729E+03   -0.38349E-06   -0.30617E-10   108   0.169E-04
  47 F= -.10247376E+03 E0= -.10247376E+03  d E =-.369543E-10
       N       E                     dE             d eps       ncg     rms          rms(c)
DAV:   1    -0.102473384788E+03    0.37056E-03   -0.19923E-01    96   0.127E+00    0.151E-01
DAV:   2    -0.102474147860E+03   -0.76307E-03   -0.92901E-03   108   0.298E-01    0.839E-02
DAV:   3    -0.102474084282E+03    0.63578E-04   -0.16146E-04   132   0.473E-02    0.433E-02
DAV:   4    -0.102474060332E+03    0.23951E-04   -0.72310E-05   120   0.322E-02    0.879E-03
DAV:   5    -0.102474054421E+03    0.59107E-05   -0.12045E-05   132   0.133E-02    0.543E-03
DAV:   6    -0.102474055266E+03   -0.84528E-06   -0.32841E-06   108   0.575E-03
  48 F= -.10247406E+03 E0= -.10247406E+03  d E =-.326237E-10
       N       E                     dE             d eps       ncg     rms          rms(c)
DAV:   1    -0.102472615305E+03    0.14391E-02   -0.41609E-01   120   0.181E+00    0.218E-01
DAV:   2    -0.102474060889E+03   -0.14456E-02   -0.17136E-02   144   0.398E-01    0.952E-02
DAV:   3    -0.102474006135E+03    0.54755E-04   -0.33895E-04   120   0.654E-02    0.504E-02
DAV:   4    -0.102474002087E+03    0.40478E-05   -0.10556E-04   132   0.402E-02    0.131E-02
DAV:   5    -0.102473997100E+03    0.49866E-05   -0.20630E-05   132   0.178E-02    0.761E-03
DAV:   6    -0.102473995701E+03    0.13991E-05   -0.44325E-06   108   0.750E-03    0.374E-03
DAV:   7    -0.102473998668E+03   -0.29666E-05   -0.73772E-07   108   0.357E-03    0.136E-03
DAV:   8    -0.102474003131E+03   -0.44635E-05   -0.37340E-07    84   0.239E-03    0.706E-04
DAV:   9    -0.102474010105E+03   -0.69733E-05   -0.45676E-07    96   0.222E-03    0.437E-04
DAV:  10    -0.102474015965E+03   -0.58601E-05   -0.44567E-07    84   0.177E-03    0.256E-04
DAV:  11    -0.102474017981E+03   -0.20158E-05   -0.78881E-08   108   0.902E-04    0.237E-04
DAV:  12    -0.102474019933E+03   -0.19521E-05   -0.49051E-08    84   0.586E-04    0.109E-04
DAV:  13    -0.102474021487E+03   -0.15545E-05   -0.49196E-08    96   0.475E-04    0.885E-05
DAV:  14    -0.102474022372E+03   -0.88454E-06   -0.15450E-08    84   0.303E-04
  49 F= -.10247402E+03 E0= -.10247402E+03  d E =-.576084E-10
       N       E                     dE             d eps       ncg     rms          rms(c)
DAV:   1    -0.102473054074E+03    0.96741E-03   -0.20294E-01    96   0.133E+00    0.154E-01
DAV:   2    -0.102474179229E+03   -0.11252E-02   -0.13129E-02   120   0.322E-01    0.710E-02
DAV:   3    -0.102474154877E+03    0.24352E-04   -0.28482E-04   144   0.543E-02    0.400E-02
DAV:   4    -0.102474145916E+03    0.89607E-05   -0.58291E-05   120   0.303E-02    0.104E-02
DAV:   5    -0.102474143518E+03    0.23982E-05   -0.13756E-05   132   0.144E-02    0.595E-03
DAV:   6    -0.102474144721E+03   -0.12035E-05   -0.23336E-06   132   0.573E-03    0.318E-03
DAV:   7    -0.102474148971E+03   -0.42497E-05   -0.70876E-07   108   0.315E-03    0.120E-03
DAV:   8    -0.102474154323E+03   -0.53523E-05   -0.36262E-07   108   0.215E-03    0.632E-04
DAV:   9    -0.102474161377E+03   -0.70540E-05   -0.39287E-07   108   0.179E-03    0.369E-04
DAV:  10    -0.102474166662E+03   -0.52844E-05   -0.36102E-07   108   0.145E-03    0.209E-04
DAV:  11    -0.102474169420E+03   -0.27581E-05   -0.10621E-07   108   0.857E-04    0.160E-04
DAV:  12    -0.102474170743E+03   -0.13238E-05   -0.34035E-08   108   0.476E-04    0.959E-05
DAV:  13    -0.102474171568E+03   -0.82444E-06   -0.12575E-08   108   0.297E-04
  50 F= -.10247417E+03 E0= -.10247417E+03  d E =-.313472E-10
       N       E                     dE             d eps       ncg     rms          rms(c)
DAV:   1    -0.102472506545E+03    0.16642E-02   -0.41186E-01   108   0.177E+00    0.191E-01
DAV:   2    -0.102474088740E+03   -0.15822E-02   -0.18786E-02   108   0.402E-01    0.944E-02
DAV:   3    -0.102474054430E+03    0.34310E-04   -0.40742E-04   156   0.683E-02    0.506E-02
DAV:   4    -0.102474030802E+03    0.23628E-04   -0.75604E-05   132   0.405E-02    0.106E-02
DAV:   5    -0.102474025280E+03    0.55222E-05   -0.29988E-05   132   0.210E-02    0.776E-03
DAV:   6    -0.102474025983E+03   -0.70300E-06   -0.43947E-06   132   0.687E-03
  51 F= -.10247403E+03 E0= -.10247403E+03  d E =-.459743E-11
       N       E                     dE             d eps       ncg     rms          rms(c)
DAV:   1    -0.102472594583E+03    0.14307E-02   -0.20253E-01    96   0.130E+00    0.138E-01
DAV:   2    -0.102473409082E+03   -0.81450E-03   -0.96693E-03   132   0.303E-01    0.814E-02
DAV:   3    -0.102473388881E+03    0.20201E-04   -0.15778E-04   120   0.424E-02    0.421E-02
DAV:   4    -0.102473364338E+03    0.24543E-04   -0.53648E-05   108   0.262E-02    0.751E-03
DAV:   5    -0.102473358331E+03    0.60067E-05   -0.82637E-06   144   0.115E-02    0.447E-03
DAV:   6    -0.102473362283E+03   -0.39512E-05   -0.42704E-06   132   0.683E-03    0.233E-03
DAV:   7    -0.102473371931E+03   -0.96480E-05   -0.13938E-06   120   0.408E-03    0.134E-03
DAV:   8    -0.102473383865E+03   -0.11935E-04   -0.77797E-07    84   0.246E-03    0.678E-04
DAV:   9    -0.102473395629E+03   -0.11764E-04   -0.11398E-06   108   0.230E-03    0.524E-04
DAV:  10    -0.102473405513E+03   -0.98844E-05   -0.89270E-07   108   0.192E-03    0.246E-04
DAV:  11    -0.102473408149E+03   -0.26359E-05   -0.81958E-08   108   0.713E-04    0.192E-04
DAV:  12    -0.102473411117E+03   -0.29677E-05   -0.14956E-07    84   0.775E-04    0.899E-05
DAV:  13    -0.102473411740E+03   -0.62321E-06   -0.16556E-08   108   0.324E-04
  52 F= -.10247341E+03 E0= -.10247341E+03  d E =-.319128E-10
       N       E                     dE             d eps       ncg     rms          rms(c)
DAV:   1    -0.102471696652E+03    0.17145E-02   -0.40193E-01   108   0.188E+00    0.217E-01
DAV:   2    -0.102473267414E+03   -0.15708E-02   -0.19180E-02    96   0.443E-01    0.114E-01
DAV:   3    -0.102473178667E+03    0.88748E-04   -0.33310E-04   144   0.621E-02    0.606E-02
DAV:   4    -0.102473118817E+03    0.59850E-04   -0.98896E-05   132   0.368E-02    0.114E-02
DAV:   5    -0.102473105995E+03    0.12822E-04   -0.17127E-05   132   0.169E-02    0.678E-03
DAV:   6    -0.102473109134E+03   -0.31393E-05   -0.77166E-06   132   0.996E-03    0.346E-03
DAV:   7    -0.102473124872E+03   -0.15738E-04   -0.31417E-06   132   0.633E-03    0.204E-03
DAV:   8    -0.102473147410E+03   -0.22539E-04   -0.13646E-06   120   0.385E-03    0.116E-03
DAV:   9    -0.102473168784E+03   -0.21374E-04   -0.13253E-06   120   0.295E-03    0.852E-04
DAV:  10    -0.102473188782E+03   -0.19998E-04   -0.96871E-07   108   0.211E-03    0.381E-04
DAV:  11    -0.102473198086E+03   -0.93044E-05   -0.22725E-07   108   0.111E-03    0.269E-04
DAV:  12    -0.102473205661E+03   -0.75742E-05   -0.19232E-07    84   0.889E-04    0.152E-04
DAV:  13    -0.102473208404E+03   -0.27428E-05   -0.44299E-08    96   0.476E-04    0.810E-05
DAV:  14    -0.102473209963E+03   -0.15593E-05   -0.10948E-08    84   0.309E-04    0.457E-05
DAV:  15    -0.102473210625E+03   -0.66194E-06   -0.13220E-09   108   0.190E-04
  53 F= -.10247321E+03 E0= -.10247321E+03  d E =-.471362E-10
       N       E                     dE             d eps       ncg     rms          rms(c)
DAV:   1    -0.102471896331E+03    0.13136E-02   -0.20170E-01    96   0.127E+00    0.153E-01
DAV:   2    -0.102472797215E+03   -0.90088E-03   -0.10947E-02   108   0.338E-01    0.911E-02
DAV:   3    -0.102472739992E+03    0.57224E-04   -0.17739E-04   132   0.466E-02    0.500E-02
DAV:   4    -0.102472708769E+03    0.31222E-04   -0.76353E-05   132   0.333E-02    0.819E-03
DAV:   5    -0.102472703107E+03    0.56625E-05   -0.16815E-05   132   0.151E-02    0.552E-03
DAV:   6    -0.102472707588E+03   -0.44817E-05   -0.54324E-06   132   0.651E-03    0.328E-03
DAV:   7    -0.102472719762E+03   -0.12174E-04   -0.80515E-07    84   0.294E-03    0.163E-03
DAV:   8    -0.102472740304E+03   -0.20542E-04   -0.23244E-06   108   0.342E-03    0.991E-04
DAV:   9    -0.102472753260E+03   -0.12957E-04   -0.79101E-07   108   0.221E-03    0.739E-04
DAV:  10    -0.102472765488E+03   -0.12227E-04   -0.10634E-06    96   0.198E-03    0.310E-04
DAV:  11    -0.102472770673E+03   -0.51850E-05   -0.18845E-07    96   0.108E-03    0.258E-04
DAV:  12    -0.102472773523E+03   -0.28503E-05   -0.85782E-08   108   0.661E-04    0.183E-04
DAV:  13    -0.102472775188E+03   -0.16655E-05   -0.40982E-08    84   0.455E-04    0.102E-04
DAV:  14    -0.102472775978E+03   -0.78987E-06   -0.43875E-09   108   0.262E-04
  54 F= -.10247278E+03 E0= -.10247278E+03  d E =-.528916E-10
       N       E                     dE             d eps       ncg     rms          rms(c)
DAV:   1    -0.102471242270E+03    0.15329E-02   -0.40831E-01    96   0.184E+00    0.207E-01
DAV:   2    -0.102472872065E+03   -0.16298E-02   -0.20212E-02   132   0.450E-01    0.129E-01
DAV:   3    -0.102472758528E+03    0.11354E-03   -0.34496E-04   132   0.654E-02    0.679E-02
DAV:   4    -0.102472699794E+03    0.58734E-04   -0.14221E-04   132   0.446E-02    0.113E-02
DAV:   5    -0.102472696480E+03    0.33131E-05   -0.27877E-05   132   0.195E-02    0.750E-03
DAV:   6    -0.102472713486E+03   -0.17006E-04   -0.12471E-05   132   0.973E-03    0.399E-03
DAV:   7    -0.102472741071E+03   -0.27585E-04   -0.21708E-06   120   0.467E-03    0.216E-03
DAV:   8    -0.102472785543E+03   -0.44472E-04   -0.55574E-06   108   0.517E-03    0.129E-03
DAV:   9    -0.102472807711E+03   -0.22168E-04   -0.16850E-06   108   0.297E-03    0.890E-04
DAV:  10    -0.102472829833E+03   -0.22122E-04   -0.20204E-06    96   0.281E-03    0.389E-04
DAV:  11    -0.102472837263E+03   -0.74299E-05   -0.29595E-07   108   0.123E-03    0.333E-04
DAV:  12    -0.102472843300E+03   -0.60366E-05   -0.33143E-07    84   0.113E-03    0.128E-04
DAV:  13    -0.102472844638E+03   -0.13382E-05   -0.35030E-08    96   0.459E-04    0.925E-05
DAV:  14    -0.102472845959E+03   -0.13209E-05   -0.17013E-08   108   0.349E-04    0.521E-05
DAV:  15    -0.102472846400E+03   -0.44155E-06   -0.85691E-10    84   0.192E-04
  55 F= -.10247285E+03 E0= -.10247285E+03  d E =-.246101E-10
       N       E                     dE             d eps       ncg     rms          rms(c)
DAV:   1    -0.102472827202E+03    0.18757E-04   -0.20030E-01    96   0.130E+00    0.147E-01
DAV:   2    -0.102474057652E+03   -0.12305E-02   -0.14687E-02   120   0.349E-01    0.834E-02
DAV:   3    -0.102474030111E+03    0.27541E-04   -0.23978E-04   144   0.479E-02    0.489E-02
DAV:   4    -0.102474005374E+03    0.24737E-04   -0.58370E-05   132   0.293E-02    0.881E-03
DAV:   5    -0.102473997836E+03    0.75387E-05   -0.12805E-05   132   0.132E-02    0.517E-03
DAV:   6    -0.102474000252E+03   -0.24164E-05   -0.34916E-06   108   0.617E-03    0.292E-03
DAV:   7    -0.102474010629E+03   -0.10377E-04   -0.18174E-06   120   0.431E-03    0.133E-03
DAV:   8    -0.102474026777E+03   -0.16147E-04   -0.93004E-07    84   0.271E-03    0.808E-04
DAV:   9    -0.102474039869E+03   -0.13092E-04   -0.91989E-07   120   0.208E-03    0.647E-04
DAV:  10    -0.102474052298E+03   -0.12429E-04   -0.72708E-07    84   0.184E-03    0.332E-04
DAV:  11    -0.102474055973E+03   -0.36750E-05   -0.16472E-07   108   0.861E-04    0.325E-04
DAV:  12    -0.102474060046E+03   -0.40735E-05   -0.11500E-07    84   0.825E-04    0.108E-04
DAV:  13    -0.102474061440E+03   -0.13934E-05   -0.38057E-08   108   0.473E-04    0.120E-04
DAV:  14    -0.102474062327E+03   -0.88705E-06   -0.63365E-09    84   0.278E-04
  56 F= -.10247406E+03 E0= -.10247406E+03  d E =-.299561E-10
       N       E                     dE             d eps       ncg     rms          rms(c)
DAV:   1    -0.102472332220E+03    0.17292E-02   -0.41049E-01   108   0.179E+00    0.191E-01
DAV:   2    -0.102473956197E+03   -0.16240E-02   -0.19324E-02    96   0.412E-01    0.984E-02
DAV:   3    -0.102473914939E+03    0.41257E-04   -0.40614E-04   156   0.677E-02    0.528E-02
DAV:   4    -0.102473886681E+03    0.28258E-04   -0.78911E-05   132   0.402E-02    0.107E-02
DAV:   5    -0.102473879372E+03    0.73091E-05   -0.28912E-05   132   0.206E-02    0.760E-03
DAV:   6    -0.102473880239E+03   -0.86714E-06   -0.49477E-06   132   0.724E-03
  57 F= -.10247388E+03 E0= -.10247388E+03  d E =-.511864E-11
       N       E                     dE             d eps       ncg     rms          rms(c)
DAV:   1    -0.102472392849E+03    0.14865E-02   -0.20577E-01   120   0.127E+00    0.140E-01
DAV:   2    -0.102473113550E+03   -0.72070E-03   -0.84435E-03   108   0.262E-01    0.621E-02
DAV:   3    -0.102473110183E+03    0.33671E-05   -0.18028E-04   132   0.459E-02    0.330E-02
DAV:   4    -0.102473116660E+03   -0.64772E-05   -0.33743E-05   120   0.279E-02    0.776E-03
DAV:   5    -0.102473121586E+03   -0.49257E-05   -0.14084E-05   120   0.142E-02    0.562E-03
DAV:   6    -0.102473124775E+03   -0.31886E-05   -0.15085E-06   120   0.415E-03    0.393E-03
DAV:   7    -0.102473131346E+03   -0.65718E-05   -0.49350E-07    84   0.259E-03    0.122E-03
DAV:   8    -0.102473137025E+03   -0.56788E-05   -0.39955E-07   108   0.217E-03    0.774E-04
DAV:   9    -0.102473146580E+03   -0.95547E-05   -0.55445E-07    84   0.258E-03    0.426E-04
DAV:  10    -0.102473148924E+03   -0.23445E-05   -0.19075E-07   108   0.135E-03    0.445E-04
DAV:  11    -0.102473150295E+03   -0.13704E-05   -0.21996E-08   108   0.557E-04    0.310E-04
DAV:  12    -0.102473153645E+03   -0.33502E-05   -0.89086E-08   108   0.679E-04    0.120E-04
DAV:  13    -0.102473155119E+03   -0.14740E-05   -0.27307E-08   108   0.393E-04    0.152E-04
DAV:  14    -0.102473156245E+03   -0.11259E-05   -0.12048E-08   108   0.287E-04    0.577E-05
DAV:  15    -0.102473156647E+03   -0.40227E-06    0.82393E-10   108   0.159E-04
  58 F= -.10247316E+03 E0= -.10247316E+03  d E =-.407251E-10
       N       E                     dE             d eps       ncg     rms          rms(c)
DAV:   1    -0.102471815363E+03    0.13409E-02   -0.40246E-01    96   0.183E+00    0.218E-01
DAV:   2    -0.102473456419E+03   -0.16411E-02   -0.19938E-02   120   0.451E-01    0.118E-01
DAV:   3    -0.102473363716E+03    0.92703E-04   -0.34331E-04   132   0.645E-02    0.635E-02
DAV:   4    -0.102473306367E+03    0.57349E-04   -0.12052E-04   132   0.428E-02    0.118E-02
DAV:   5    -0.102473301002E+03    0.53657E-05   -0.25114E-05   132   0.192E-02    0.777E-03
DAV:   6    -0.102473312183E+03   -0.11182E-04   -0.88400E-06   132   0.916E-03    0.423E-03
DAV:   7    -0.102473334621E+03   -0.22438E-04   -0.25852E-06   132   0.530E-03    0.215E-03
DAV:   8    -0.102473367303E+03   -0.32681E-04   -0.32710E-06   120   0.460E-03    0.120E-03
DAV:   9    -0.102473386630E+03   -0.19328E-04   -0.15872E-06   120   0.306E-03    0.967E-04
DAV:  10    -0.102473405237E+03   -0.18606E-04   -0.15409E-06   108   0.259E-03    0.368E-04
DAV:  11    -0.102473412773E+03   -0.75363E-05   -0.35875E-07   108   0.134E-03    0.324E-04
DAV:  12    -0.102473418898E+03   -0.61255E-05   -0.35533E-07    84   0.116E-03    0.140E-04
DAV:  13    -0.102473420435E+03   -0.15361E-05   -0.51427E-08   108   0.500E-04    0.917E-05
DAV:  14    -0.102473421524E+03   -0.10894E-05   -0.12519E-08    84   0.316E-04    0.469E-05
DAV:  15    -0.102473421997E+03   -0.47299E-06   -0.20947E-09    96   0.196E-04
  59 F= -.10247342E+03 E0= -.10247342E+03  d E =-.361819E-10
       N       E                     dE             d eps       ncg     rms          rms(c)
DAV:   1    -0.102472161207E+03    0.12603E-02   -0.20210E-01   108   0.134E+00    0.155E-01
DAV:   2    -0.102472914414E+03   -0.75321E-03   -0.93113E-03    96   0.314E-01    0.786E-02
DAV:   3    -0.102472870657E+03    0.43757E-04   -0.16299E-04   144   0.431E-02    0.412E-02
DAV:   4    -0.102472837591E+03    0.33066E-04   -0.40864E-05   132   0.237E-02    0.795E-03
DAV:   5    -0.102472830091E+03    0.75001E-05   -0.74223E-06   132   0.114E-02    0.444E-03
DAV:   6    -0.102472832052E+03   -0.19614E-05   -0.35907E-06   132   0.716E-03    0.233E-03
DAV:   7    -0.102472841628E+03   -0.95758E-05   -0.15293E-06    96   0.476E-03    0.136E-03
DAV:   8    -0.102472854769E+03   -0.13140E-04   -0.70880E-07    96   0.289E-03    0.795E-04
DAV:   9    -0.102472868033E+03   -0.13264E-04   -0.86675E-07    96   0.225E-03    0.531E-04
DAV:  10    -0.102472878753E+03   -0.10720E-04   -0.41287E-07    96   0.149E-03    0.279E-04
DAV:  11    -0.102472884267E+03   -0.55135E-05   -0.16821E-07   108   0.850E-04    0.183E-04
DAV:  12    -0.102472888619E+03   -0.43526E-05   -0.82890E-08    84   0.621E-04    0.984E-05
DAV:  13    -0.102472890532E+03   -0.19127E-05   -0.27095E-08    96   0.386E-04    0.562E-05
DAV:  14    -0.102472891782E+03   -0.12498E-05   -0.11496E-08    84   0.275E-04    0.341E-05
DAV:  15    -0.102472892148E+03   -0.36672E-06    0.29308E-09   108   0.142E-04
  60 F= -.10247289E+03 E0= -.10247289E+03  d E =-.554005E-10
       N       E                     dE             d eps       ncg     rms          rms(c)
DAV:   1    -0.102471669046E+03    0.12227E-02   -0.40952E-01   108   0.189E+00    0.207E-01
DAV:   2    -0.102473060813E+03   -0.13918E-02   -0.17628E-02   108   0.424E-01    0.121E-01
DAV:   3    -0.102472946714E+03    0.11410E-03   -0.30312E-04   132   0.607E-02    0.602E-02
DAV:   4    -0.102472877073E+03    0.69641E-04   -0.99507E-05   132   0.373E-02    0.113E-02
DAV:   5    -0.102472876291E+03    0.78172E-06   -0.16492E-05   132   0.162E-02    0.676E-03
DAV:   6    -0.102472900735E+03   -0.24444E-04   -0.11886E-05   132   0.106E-02    0.344E-03
DAV:   7    -0.102472931334E+03   -0.30599E-04   -0.35216E-06   132   0.617E-03    0.222E-03
DAV:   8    -0.102472972214E+03   -0.40880E-04   -0.39432E-06    96   0.457E-03    0.106E-03
DAV:   9    -0.102472999248E+03   -0.27034E-04   -0.25645E-06   108   0.348E-03    0.851E-04
DAV:  10    -0.102473021220E+03   -0.21972E-04   -0.21477E-06   120   0.287E-03    0.341E-04
DAV:  11    -0.102473028191E+03   -0.69706E-05   -0.30573E-07    84   0.128E-03    0.273E-04
DAV:  12    -0.102473033350E+03   -0.51595E-05   -0.25507E-07    96   0.999E-04    0.117E-04
DAV:  13    -0.102473034532E+03   -0.11817E-05   -0.33242E-08   108   0.422E-04    0.700E-05
DAV:  14    -0.102473035695E+03   -0.11632E-05   -0.15247E-08    84   0.346E-04    0.436E-05
DAV:  15    -0.102473035998E+03   -0.30341E-06    0.16904E-09   108   0.164E-04
  61 F= -.10247304E+03 E0= -.10247304E+03  d E =-.233856E-10
       N       E                     dE             d eps       ncg     rms          rms(c)
DAV:   1    -0.102475987413E+03   -0.29517E-02   -0.23358E-01   108   0.165E+00    0.134E-01
DAV:   2    -0.102476420381E+03   -0.43297E-03   -0.63350E-03   108   0.254E-01    0.789E-02
DAV:   3    -0.102476361022E+03    0.59358E-04   -0.16525E-04   132   0.442E-02    0.350E-02
DAV:   4    -0.102476343561E+03    0.17461E-04   -0.60050E-05   120   0.267E-02    0.765E-03
DAV:   5    -0.102476339721E+03    0.38397E-05   -0.85639E-06   132   0.110E-02    0.501E-03
DAV:   6    -0.102476341215E+03   -0.14931E-05   -0.34050E-06   120   0.585E-03    0.220E-03
DAV:   7    -0.102476346137E+03   -0.49228E-05   -0.46181E-07   108   0.281E-03    0.114E-03
DAV:   8    -0.102476354468E+03   -0.83303E-05   -0.54090E-07    84   0.223E-03    0.722E-04
DAV:   9    -0.102476364493E+03   -0.10025E-04   -0.63818E-07    96   0.204E-03    0.371E-04
DAV:  10    -0.102476371659E+03   -0.71656E-05   -0.37098E-07    96   0.140E-03    0.306E-04
DAV:  11    -0.102476375223E+03   -0.35646E-05   -0.57589E-08    96   0.692E-04    0.129E-04
DAV:  12    -0.102476378096E+03   -0.28730E-05   -0.78074E-08    84   0.603E-04    0.104E-04
DAV:  13    -0.102476378693E+03   -0.59634E-06   -0.40878E-09   120   0.257E-04
  62 F= -.10247638E+03 E0= -.10247638E+03  d E =-.373258E-10
       N       E                     dE             d eps       ncg     rms          rms(c)
DAV:   1    -0.102476414751E+03   -0.36655E-04   -0.52780E-01    96   0.253E+00    0.173E-01
DAV:   2    -0.102476301648E+03    0.11310E-03   -0.27348E-03   120   0.179E-01    0.977E-02
DAV:   3    -0.102476156883E+03    0.14477E-03   -0.40587E-04   120   0.611E-02    0.191E-02
DAV:   4    -0.102476159964E+03   -0.30810E-05   -0.72557E-05   132   0.263E-02    0.964E-03
DAV:   5    -0.102476160724E+03   -0.75932E-06   -0.29953E-06   132   0.631E-03
  63 F= -.10247616E+03 E0= -.10247616E+03  d E =-.435788E-10
       N       E                     dE             d eps       ncg     rms          rms(c)
DAV:   1    -0.102475384391E+03    0.77557E-03   -0.27351E-01   108   0.184E+00    0.147E-01
DAV:   2    -0.102475372330E+03    0.12061E-04   -0.22865E-03   120   0.156E-01    0.798E-02
DAV:   3    -0.102475283419E+03    0.88911E-04   -0.26467E-04   120   0.465E-02    0.228E-02
DAV:   4    -0.102475280867E+03    0.25518E-05   -0.58445E-05   108   0.218E-02    0.881E-03
DAV:   5    -0.102475279278E+03    0.15898E-05   -0.27117E-06   120   0.675E-03    0.451E-03
DAV:   6    -0.102475279439E+03   -0.16180E-06   -0.26524E-06   108   0.589E-03
  64 F= -.10247528E+03 E0= -.10247528E+03  d E =-.382020E-10
       N       E                     dE             d eps       ncg     rms          rms(c)
DAV:   1    -0.102475278662E+03    0.61527E-06   -0.54055E-01   108   0.263E+00    0.199E-01
DAV:   2    -0.102475144370E+03    0.13429E-03   -0.37922E-03   120   0.210E-01    0.108E-01
DAV:   3    -0.102474961214E+03    0.18316E-03   -0.50583E-04   120   0.607E-02    0.288E-02
DAV:   4    -0.102474948578E+03    0.12636E-04   -0.74316E-05   120   0.257E-02    0.115E-02
DAV:   5    -0.102474948015E+03    0.56295E-06   -0.61305E-06   132   0.943E-03
  65 F= -.10247495E+03 E0= -.10247495E+03  d E =-.384715E-10
       N       E                     dE             d eps       ncg     rms          rms(c)
DAV:   1    -0.102476439194E+03   -0.14906E-02   -0.27238E-01   108   0.183E+00    0.143E-01
DAV:   2    -0.102476399734E+03    0.39460E-04   -0.21999E-03   120   0.164E-01    0.788E-02
DAV:   3    -0.102476318936E+03    0.80798E-04   -0.28751E-04   120   0.517E-02    0.207E-02
DAV:   4    -0.102476322396E+03   -0.34597E-05   -0.65054E-05   132   0.247E-02    0.852E-03
DAV:   5    -0.102476321853E+03    0.54265E-06   -0.25452E-06    96   0.612E-03
  66 F= -.10247632E+03 E0= -.10247632E+03  d E =-.326421E-10
       N       E                     dE             d eps       ncg     rms          rms(c)
DAV:   1    -0.102476522449E+03   -0.20005E-03   -0.53528E-01    96   0.257E+00    0.170E-01
DAV:   2    -0.102476386610E+03    0.13584E-03   -0.28158E-03   108   0.183E-01    0.975E-02
DAV:   3    -0.102476243071E+03    0.14354E-03   -0.48079E-04   120   0.701E-02    0.170E-02
DAV:   4    -0.102476249503E+03   -0.64317E-05   -0.93600E-05   132   0.317E-02    0.989E-03
DAV:   5    -0.102476248460E+03    0.10429E-05   -0.24791E-06   108   0.573E-03    0.630E-03
DAV:   6    -0.102476248495E+03   -0.35237E-07   -0.25357E-06   132   0.554E-03
  67 F= -.10247625E+03 E0= -.10247625E+03  d E =-.382306E-10
       N       E                     dE             d eps       ncg     rms          rms(c)
DAV:   1    -0.102476807758E+03   -0.55930E-03   -0.26628E-01    96   0.193E+00    0.119E-01
DAV:   2    -0.102476789918E+03    0.17840E-04   -0.14422E-03   120   0.135E-01    0.686E-02
DAV:   3    -0.102476733750E+03    0.56167E-04   -0.14177E-04   120   0.371E-02    0.110E-02
DAV:   4    -0.102476735372E+03   -0.16220E-05   -0.23547E-05   132   0.154E-02    0.471E-03
DAV:   5    -0.102476735519E+03   -0.14700E-06   -0.58306E-07   108   0.298E-03
  68 F= -.10247674E+03 E0= -.10247674E+03  d E =-.369086E-10
       N       E                     dE             d eps       ncg     rms          rms(c)
DAV:   1    -0.102477065954E+03   -0.33058E-03   -0.52875E-01    96   0.265E+00    0.160E-01
DAV:   2    -0.102476934894E+03    0.13106E-03   -0.20798E-03   108   0.158E-01    0.927E-02
DAV:   3    -0.102476831251E+03    0.10364E-03   -0.39142E-04   120   0.653E-02    0.116E-02
DAV:   4    -0.102476838310E+03   -0.70592E-05   -0.67088E-05   120   0.275E-02    0.825E-03
DAV:   5    -0.102476838493E+03   -0.18265E-06   -0.17585E-06   120   0.467E-03
  69 F= -.10247684E+03 E0= -.10247684E+03  d E =-.404693E-10
       N       E                     dE             d eps       ncg     rms          rms(c)
DAV:   1    -0.102476823443E+03    0.14867E-04   -0.26741E-01    96   0.186E+00    0.113E-01
DAV:   2    -0.102476752933E+03    0.70510E-04   -0.10057E-03   120   0.108E-01    0.654E-02
DAV:   3    -0.102476699523E+03    0.53410E-04   -0.19346E-04   108   0.425E-02    0.900E-03
DAV:   4    -0.102476701509E+03   -0.19859E-05   -0.28528E-05   132   0.177E-02    0.530E-03
DAV:   5    -0.102476701275E+03    0.23350E-06   -0.77108E-07    84   0.338E-03
  70 F= -.10247670E+03 E0= -.10247670E+03  d E =-.357150E-10
       N       E                     dE             d eps       ncg     rms          rms(c)
DAV:   1    -0.102476893646E+03   -0.19214E-03   -0.53095E-01    96   0.268E+00    0.162E-01
DAV:   2    -0.102476764566E+03    0.12908E-03   -0.21222E-03   120   0.156E-01    0.931E-02
DAV:   3    -0.102476647414E+03    0.11715E-03   -0.35245E-04   132   0.574E-02    0.151E-02
DAV:   4    -0.102476649640E+03   -0.22259E-05   -0.49607E-05   120   0.236E-02    0.813E-03
DAV:   5    -0.102476649695E+03   -0.54768E-07   -0.21675E-06   132   0.517E-03
  71 F= -.10247665E+03 E0= -.10247665E+03  d E =-.379134E-10
       N       E                     dE             d eps       ncg     rms          rms(c)
DAV:   1    -0.102474415606E+03    0.22340E-02   -0.26723E-01    96   0.188E+00    0.124E-01
[...]
DAV:   4    -0.102476733647E+03   -0.72608E-05   -0.73465E-05   132   0.270E-02    0.839E-03
DAV:   5    -0.102476734479E+03   -0.83199E-06   -0.34652E-06   132   0.662E-03
 131 F= -.10247673E+03 E0= -.10247673E+03  d E =-.429431E-10
       N       E                     dE             d eps       ncg     rms          rms(c)
DAV:   1    -0.102476393156E+03    0.34049E-03   -0.27134E-01    96   0.130E+00    0.139E-01
DAV:   2    -0.102476279873E+03    0.11328E-03   -0.14996E-03   120   0.106E-01    0.783E-02
DAV:   3    -0.102476201759E+03    0.78115E-04   -0.21749E-04   120   0.428E-02    0.181E-02
DAV:   4    -0.102476205046E+03   -0.32871E-05   -0.36361E-05   132   0.188E-02    0.629E-03
DAV:   5    -0.102476205639E+03   -0.59371E-06   -0.17963E-06   132   0.483E-03
 132 F= -.10247621E+03 E0= -.10247621E+03  d E =-.514435E-10
       N       E                     dE             d eps       ncg     rms          rms(c)
DAV:   1    -0.102476876775E+03   -0.67173E-03   -0.55035E-01    96   0.180E+00    0.223E-01
DAV:   2    -0.102476590923E+03    0.28585E-03   -0.33558E-03   120   0.157E-01    0.118E-01
DAV:   3    -0.102476411460E+03    0.17946E-03   -0.47041E-04   120   0.588E-02    0.369E-02
DAV:   4    -0.102476411891E+03   -0.43106E-06   -0.94316E-05   132   0.274E-02    0.110E-02
DAV:   5    -0.102476411086E+03    0.80472E-06   -0.57191E-06   120   0.856E-03
 133 F= -.10247641E+03 E0= -.10247641E+03  d E =-.283156E-10
       N       E                     dE             d eps       ncg     rms          rms(c)
DAV:   1    -0.102476472663E+03   -0.60772E-04   -0.27630E-01    96   0.181E+00    0.160E-01
DAV:   2    -0.102476368007E+03    0.10466E-03   -0.19724E-03   108   0.147E-01    0.854E-02
DAV:   3    -0.102476277728E+03    0.90279E-04   -0.21748E-04   120   0.445E-02    0.282E-02
DAV:   4    -0.102476277216E+03    0.51174E-06   -0.58881E-05   120   0.223E-02    0.782E-03
DAV:   5    -0.102476276542E+03    0.67359E-06   -0.40771E-06   132   0.730E-03
 134 F= -.10247628E+03 E0= -.10247628E+03  d E =-.383442E-10
       N       E                     dE             d eps       ncg     rms          rms(c)
DAV:   1    -0.102476540633E+03   -0.26342E-03   -0.55375E-01    96   0.246E+00    0.235E-01
DAV:   2    -0.102476182323E+03    0.35831E-03   -0.31250E-03   120   0.182E-01    0.120E-01
DAV:   3    -0.102475978347E+03    0.20398E-03   -0.44237E-04   120   0.570E-02    0.403E-02
DAV:   4    -0.102475971043E+03    0.73043E-05   -0.11210E-04   132   0.297E-02    0.119E-02
DAV:   5    -0.102475971768E+03   -0.72480E-06   -0.78887E-06   108   0.106E-02
 135 F= -.10247597E+03 E0= -.10247597E+03  d E =-.398582E-10
       N       E                     dE             d eps       ncg     rms          rms(c)
DAV:   1    -0.102475454916E+03    0.51613E-03   -0.29015E-01    96   0.179E+00    0.209E-01
DAV:   2    -0.102475197132E+03    0.25778E-03   -0.23595E-03   120   0.164E-01    0.103E-01
DAV:   3    -0.102475054265E+03    0.14287E-03   -0.39108E-04   120   0.585E-02    0.359E-02
DAV:   4    -0.102475054513E+03   -0.24770E-06   -0.11734E-04   132   0.317E-02    0.146E-02
DAV:   5    -0.102475053141E+03    0.13717E-05   -0.50850E-06   132   0.888E-03    0.576E-03
DAV:   6    -0.102475053264E+03   -0.12251E-06   -0.25827E-06   132   0.544E-03
 136 F= -.10247505E+03 E0= -.10247505E+03  d E =-.339359E-10
       N       E                     dE             d eps       ncg     rms          rms(c)
DAV:   1    -0.102475952955E+03   -0.89981E-03   -0.57345E-01    96   0.250E+00    0.271E-01
DAV:   2    -0.102475412148E+03    0.54081E-03   -0.44431E-03   120   0.227E-01    0.137E-01
DAV:   3    -0.102475114618E+03    0.29753E-03   -0.80483E-04   120   0.836E-02    0.443E-02
DAV:   4    -0.102475114624E+03   -0.59508E-08   -0.19086E-04   132   0.418E-02    0.190E-02
DAV:   5    -0.102475114057E+03    0.56704E-06   -0.77886E-06   132   0.102E-02
 137 F= -.10247511E+03 E0= -.10247511E+03  d E =-.383493E-10
       N       E                     dE             d eps       ncg     rms          rms(c)
DAV:   1    -0.102476643155E+03   -0.15285E-02   -0.28878E-01    96   0.177E+00    0.208E-01
DAV:   2    -0.102476377546E+03    0.26561E-03   -0.22537E-03   120   0.165E-01    0.101E-01
DAV:   3    -0.102476233769E+03    0.14378E-03   -0.40015E-04   120   0.611E-02    0.358E-02
DAV:   4    -0.102476235120E+03   -0.13514E-05   -0.12146E-04   120   0.328E-02    0.133E-02
DAV:   5    -0.102476234204E+03    0.91609E-06   -0.52173E-06   132   0.902E-03
 138 F= -.10247623E+03 E0= -.10247623E+03  d E =-.407930E-10
       N       E                     dE             d eps       ncg     rms          rms(c)
DAV:   1    -0.102476682122E+03   -0.44700E-03   -0.54728E-01    96   0.251E+00    0.230E-01
DAV:   2    -0.102476341567E+03    0.34055E-03   -0.31736E-03   120   0.185E-01    0.120E-01
DAV:   3    -0.102476143361E+03    0.19821E-03   -0.46287E-04   132   0.627E-02    0.369E-02
DAV:   4    -0.102476144359E+03   -0.99829E-06   -0.10036E-04   132   0.299E-02    0.125E-02
DAV:   5    -0.102476144488E+03   -0.12872E-06   -0.58182E-06   108   0.910E-03
 139 F= -.10247614E+03 E0= -.10247614E+03  d E =-.334798E-10
       N       E                     dE             d eps       ncg     rms          rms(c)
DAV:   1    -0.102476233211E+03   -0.88851E-04   -0.27666E-01    96   0.176E+00    0.166E-01
DAV:   2    -0.102476100821E+03    0.13239E-03   -0.16824E-03   120   0.132E-01    0.874E-02
DAV:   3    -0.102476010123E+03    0.90698E-04   -0.27078E-04   120   0.436E-02    0.259E-02
DAV:   4    -0.102476007756E+03    0.23673E-05   -0.39597E-05   132   0.178E-02    0.107E-02
DAV:   5    -0.102476006159E+03    0.15963E-05   -0.25617E-06   132   0.665E-03    0.526E-03
DAV:   6    -0.102476006112E+03    0.47309E-07   -0.20589E-06   120   0.517E-03
 140 F= -.10247601E+03 E0= -.10247601E+03  d E =-.353810E-10
       N       E                     dE             d eps       ncg     rms          rms(c)
DAV:   1    -0.102476329134E+03   -0.32297E-03   -0.55728E-01    96   0.248E+00    0.248E-01
DAV:   2    -0.102475939984E+03    0.38915E-03   -0.33711E-03   120   0.191E-01    0.124E-01
DAV:   3    -0.102475722383E+03    0.21760E-03   -0.47821E-04   120   0.595E-02    0.437E-02
DAV:   4    -0.102475712466E+03    0.99163E-05   -0.13308E-04   132   0.325E-02    0.132E-02
DAV:   5    -0.102475713052E+03   -0.58521E-06   -0.91746E-06   132   0.116E-02
 141 F= -.10247571E+03 E0= -.10247571E+03  d E =-.426748E-10
       N       E                     dE             d eps       ncg     rms          rms(c)
DAV:   1    -0.102475039227E+03    0.67324E-03   -0.27301E-01    96   0.174E+00    0.139E-01
DAV:   2    -0.102474906503E+03    0.13272E-03   -0.14462E-03   120   0.123E-01    0.785E-02
DAV:   3    -0.102474820963E+03    0.85540E-04   -0.26452E-04   120   0.480E-02    0.164E-02
DAV:   4    -0.102474825904E+03   -0.49411E-05   -0.47095E-05   132   0.212E-02    0.807E-03
DAV:   5    -0.102474826517E+03   -0.61283E-06   -0.12166E-06   108   0.413E-03
 142 F= -.10247483E+03 E0= -.10247483E+03  d E =-.351927E-10
       N       E                     dE             d eps       ncg     rms          rms(c)
DAV:   1    -0.102475598121E+03   -0.77222E-03   -0.58097E-01    96   0.250E+00    0.290E-01
DAV:   2    -0.102475041441E+03    0.55668E-03   -0.45336E-03   120   0.233E-01    0.142E-01
DAV:   3    -0.102474729682E+03    0.31176E-03   -0.85192E-04   120   0.881E-02    0.492E-02
DAV:   4    -0.102474730205E+03   -0.52349E-06   -0.24092E-04   120   0.460E-02    0.186E-02
DAV:   5    -0.102474728213E+03    0.19928E-05   -0.97731E-06   132   0.119E-02    0.898E-03
DAV:   6    -0.102474728284E+03   -0.71279E-07   -0.48279E-06   120   0.771E-03
 143 F= -.10247473E+03 E0= -.10247473E+03  d E =-.355559E-10
       N       E                     dE             d eps       ncg     rms          rms(c)
DAV:   1    -0.102477129904E+03   -0.24017E-02   -0.28133E-01    96   0.176E+00    0.167E-01
DAV:   2    -0.102476912352E+03    0.21755E-03   -0.18565E-03   120   0.145E-01    0.894E-02
DAV:   3    -0.102476798985E+03    0.11337E-03   -0.33760E-04   120   0.551E-02    0.250E-02
DAV:   4    -0.102476804045E+03   -0.50598E-05   -0.75219E-05   132   0.267E-02    0.115E-02
DAV:   5    -0.102476804279E+03   -0.23375E-06   -0.26193E-06   120   0.606E-03
 144 F= -.10247680E+03 E0= -.10247680E+03  d E =-.428383E-10
       N       E                     dE             d eps       ncg     rms          rms(c)
DAV:   1    -0.102477155426E+03   -0.35138E-03   -0.54127E-01    96   0.248E+00    0.200E-01
DAV:   2    -0.102476867411E+03    0.28801E-03   -0.27089E-03   120   0.169E-01    0.112E-01
DAV:   3    -0.102476700987E+03    0.16642E-03   -0.43046E-04   120   0.615E-02    0.237E-02
DAV:   4    -0.102476706330E+03   -0.53434E-05   -0.70597E-05   132   0.257E-02    0.970E-03
DAV:   5    -0.102476706699E+03   -0.36890E-06   -0.30272E-06   132   0.617E-03
 145 F= -.10247671E+03 E0= -.10247671E+03  d E =-.339411E-10
       N       E                     dE             d eps       ncg     rms          rms(c)
DAV:   1    -0.102475980048E+03    0.72628E-03   -0.27655E-01    96   0.199E+00    0.156E-01
DAV:   2    -0.102475846126E+03    0.13392E-03   -0.20031E-03   120   0.164E-01    0.858E-02
DAV:   3    -0.102475747086E+03    0.99040E-04   -0.28420E-04   132   0.577E-02    0.246E-02
DAV:   4    -0.102475752010E+03   -0.49246E-05   -0.76931E-05   132   0.289E-02    0.111E-02
DAV:   5    -0.102475751670E+03    0.34031E-06   -0.22457E-06   120   0.639E-03
 146 F= -.10247575E+03 E0= -.10247575E+03  d E =-.360714E-10
       N       E                     dE             d eps       ncg     rms          rms(c)
DAV:   1    -0.102476612693E+03   -0.86068E-03   -0.56046E-01    96   0.263E+00    0.239E-01
DAV:   2    -0.102476196046E+03    0.41665E-03   -0.40227E-03   120   0.227E-01    0.127E-01
DAV:   3    -0.102475950349E+03    0.24570E-03   -0.67685E-04   120   0.857E-02    0.370E-02
DAV:   4    -0.102475954775E+03   -0.44255E-05   -0.15448E-04   132   0.414E-02    0.172E-02
DAV:   5    -0.102475954070E+03    0.70449E-06   -0.54899E-06   132   0.942E-03
 147 F= -.10247595E+03 E0= -.10247595E+03  d E =-.378154E-10
       N       E                     dE             d eps       ncg     rms          rms(c)
DAV:   1    -0.102475086005E+03    0.86877E-03   -0.27279E-01    96   0.180E+00    0.141E-01
DAV:   2    -0.102474956169E+03    0.12984E-03   -0.14393E-03   120   0.133E-01    0.779E-02
DAV:   3    -0.102474867177E+03    0.88993E-04   -0.21405E-04   120   0.453E-02    0.189E-02
DAV:   4    -0.102474869322E+03   -0.21454E-05   -0.36525E-05   132   0.200E-02    0.662E-03
DAV:   5    -0.102474870483E+03   -0.11609E-05   -0.17155E-06   120   0.513E-03    0.438E-03
DAV:   6    -0.102474872921E+03   -0.24379E-05   -0.10444E-06   108   0.367E-03    0.887E-04
DAV:   7    -0.102474874392E+03   -0.14712E-05   -0.31777E-07   108   0.206E-03    0.607E-04
DAV:   8    -0.102474876587E+03   -0.21948E-05   -0.11801E-07    96   0.138E-03    0.279E-04
DAV:   9    -0.102474878704E+03   -0.21175E-05   -0.13885E-07    96   0.117E-03    0.211E-04
DAV:  10    -0.102474880688E+03   -0.19836E-05   -0.10057E-07    96   0.843E-04    0.129E-04
DAV:  11    -0.102474881369E+03   -0.68136E-06   -0.23812E-08   108   0.446E-04
 148 F= -.10247488E+03 E0= -.10247488E+03  d E =-.322668E-10
       N       E                     dE             d eps       ncg     rms          rms(c)
DAV:   1    -0.102475348050E+03   -0.46736E-03   -0.57951E-01    96   0.268E+00    0.296E-01
DAV:   2    -0.102474887793E+03    0.46026E-03   -0.46136E-03   120   0.242E-01    0.140E-01
DAV:   3    -0.102474600983E+03    0.28681E-03   -0.68810E-04   132   0.796E-02    0.515E-02
DAV:   4    -0.102474585193E+03    0.15790E-04   -0.19045E-04   120   0.410E-02    0.168E-02
DAV:   5    -0.102474581884E+03    0.33085E-05   -0.99318E-06   132   0.138E-02    0.685E-03
DAV:   6    -0.102474583713E+03   -0.18289E-05   -0.51231E-06   132   0.787E-03    0.275E-03
DAV:   7    -0.102474586369E+03   -0.26557E-05   -0.92200E-07   120   0.357E-03    0.123E-03
DAV:   8    -0.102474590503E+03   -0.41339E-05   -0.24770E-07    96   0.193E-03    0.572E-04
DAV:   9    -0.102474593731E+03   -0.32282E-05   -0.21256E-07   108   0.158E-03    0.618E-04
DAV:  10    -0.102474599818E+03   -0.60865E-05   -0.35568E-07    96   0.156E-03    0.320E-04
DAV:  11    -0.102474601279E+03   -0.14611E-05   -0.71465E-08   120   0.800E-04    0.255E-04
DAV:  12    -0.102474602213E+03   -0.93461E-06   -0.79000E-09   108   0.384E-04
 149 F= -.10247460E+03 E0= -.10247460E+03  d E =-.362227E-10
       N       E                     dE             d eps       ncg     rms          rms(c)
DAV:   1    -0.102477061646E+03   -0.24604E-02   -0.27918E-01    96   0.180E+00    0.172E-01
DAV:   2    -0.102476863169E+03    0.19848E-03   -0.18721E-03   120   0.154E-01    0.889E-02
DAV:   3    -0.102476751580E+03    0.11159E-03   -0.28101E-04   132   0.519E-02    0.273E-02
DAV:   4    -0.102476752512E+03   -0.93184E-06   -0.58354E-05   120   0.242E-02    0.992E-03
DAV:   5    -0.102476753410E+03   -0.89842E-06   -0.32034E-06   132   0.735E-03
 150 F= -.10247675E+03 E0= -.10247675E+03  d E =-.426558E-10
       N       E                     dE             d eps       ncg     rms          rms(c)
DAV:   1    -0.102477216471E+03   -0.46396E-03   -0.54267E-01    96   0.251E+00    0.200E-01
DAV:   2    -0.102476927753E+03    0.28872E-03   -0.28002E-03   120   0.190E-01    0.112E-01
DAV:   3    -0.102476755271E+03    0.17248E-03   -0.45473E-04   132   0.671E-02    0.229E-02
DAV:   4    -0.102476761884E+03   -0.66128E-05   -0.69644E-05   132   0.277E-02    0.890E-03
DAV:   5    -0.102476763222E+03   -0.13380E-05   -0.30930E-06   132   0.650E-03    0.604E-03
DAV:   6    -0.102476766672E+03   -0.34495E-05   -0.16082E-06   120   0.428E-03    0.105E-03
DAV:   7    -0.102476768765E+03   -0.20934E-05   -0.30523E-07   108   0.204E-03    0.879E-04
DAV:   8    -0.102476771936E+03   -0.31714E-05   -0.14446E-07    96   0.160E-03    0.380E-04
DAV:   9    -0.102476775279E+03   -0.33424E-05   -0.19566E-07    96   0.157E-03    0.372E-04
DAV:  10    -0.102476777597E+03   -0.23186E-05   -0.11461E-07   108   0.975E-04    0.204E-04
DAV:  11    -0.102476778711E+03   -0.11139E-05   -0.33334E-08   108   0.484E-04    0.128E-04
DAV:  12    -0.102476779377E+03   -0.66580E-06   -0.10601E-08    96   0.322E-04
 151 F= -.10247678E+03 E0= -.10247678E+03  d E =-.312434E-10
       N       E                     dE             d eps       ncg     rms          rms(c)
DAV:   1    -0.102474813769E+03    0.19649E-02   -0.28082E-01    96   0.199E+00    0.182E-01
DAV:   2    -0.102474601530E+03    0.21224E-03   -0.23510E-03   120   0.184E-01    0.900E-02
DAV:   3    -0.102474468047E+03    0.13348E-03   -0.32929E-04   132   0.623E-02    0.318E-02
DAV:   4    -0.102474470664E+03   -0.26170E-05   -0.10220E-04   132   0.330E-02    0.102E-02
DAV:   5    -0.102474471828E+03   -0.11646E-05   -0.57330E-06   132   0.908E-03    0.598E-03
DAV:   6    -0.102474473568E+03   -0.17402E-05   -0.16306E-06   120   0.466E-03    0.124E-03
DAV:   7    -0.102474474720E+03   -0.11514E-05   -0.36660E-07   108   0.237E-03    0.638E-04
DAV:   8    -0.102474476409E+03   -0.16892E-05   -0.84685E-08    84   0.113E-03    0.256E-04
DAV:   9    -0.102474477721E+03   -0.13121E-05   -0.49288E-08    96   0.766E-04    0.184E-04
DAV:  10    -0.102474479455E+03   -0.17334E-05   -0.69644E-08    96   0.716E-04    0.824E-05
DAV:  11    -0.102474480009E+03   -0.55452E-06   -0.15937E-08   108   0.410E-04
 152 F= -.10247448E+03 E0= -.10247448E+03  d E =-.359718E-10
       N       E                     dE             d eps       ncg     rms          rms(c)
DAV:   1    -0.102475355518E+03   -0.87606E-03   -0.58472E-01    96   0.274E+00    0.298E-01
DAV:   2    -0.102474819606E+03    0.53591E-03   -0.49953E-03   120   0.260E-01    0.146E-01
DAV:   3    -0.102474486116E+03    0.33349E-03   -0.84941E-04   132   0.953E-02    0.510E-02
DAV:   4    -0.102474481854E+03    0.42620E-05   -0.24406E-04   120   0.501E-02    0.203E-02
DAV:   5    -0.102474480170E+03    0.16840E-05   -0.11350E-05   120   0.135E-02    0.901E-03
DAV:   6    -0.102474481609E+03   -0.14387E-05   -0.52111E-06   132   0.884E-03    0.210E-03
DAV:   7    -0.102474484190E+03   -0.25809E-05   -0.15187E-06   132   0.443E-03    0.133E-03
DAV:   8    -0.102474487426E+03   -0.32359E-05   -0.13186E-07    96   0.106E-03    0.525E-04
DAV:   9    -0.102474490993E+03   -0.35670E-05   -0.16716E-07    96   0.111E-03    0.480E-04
DAV:  10    -0.102474495157E+03   -0.41644E-05   -0.22700E-07    96   0.131E-03    0.589E-04
DAV:  11    -0.102474497421E+03   -0.22636E-05   -0.94720E-08   108   0.792E-04    0.326E-04
DAV:  12    -0.102474498186E+03   -0.76564E-06   -0.58304E-09   108   0.414E-04
 153 F= -.10247450E+03 E0= -.10247450E+03  d E =-.317269E-10
       N       E                     dE             d eps       ncg     rms          rms(c)
DAV:   1    -0.102476948850E+03   -0.24514E-02   -0.28554E-01    96   0.191E+00    0.195E-01
DAV:   2    -0.102476723785E+03    0.22507E-03   -0.21878E-03   120   0.170E-01    0.962E-02
DAV:   3    -0.102476583342E+03    0.14044E-03   -0.30706E-04   132   0.547E-02    0.350E-02
DAV:   4    -0.102476577751E+03    0.55905E-05   -0.88241E-05   120   0.288E-02    0.118E-02
DAV:   5    -0.102476579554E+03   -0.18025E-05   -0.55476E-06   132   0.101E-02    0.527E-03
DAV:   6    -0.102476583270E+03   -0.37160E-05   -0.24078E-06   132   0.547E-03    0.169E-03
DAV:   7    -0.102476585991E+03   -0.27213E-05   -0.37376E-07   108   0.240E-03    0.824E-04
DAV:   8    -0.102476590788E+03   -0.47972E-05   -0.24756E-07    96   0.159E-03    0.401E-04
DAV:   9    -0.102476592683E+03   -0.18946E-05   -0.10320E-07   108   0.103E-03    0.420E-04
DAV:  10    -0.102476596400E+03   -0.37169E-05   -0.18999E-07    96   0.110E-03    0.174E-04
DAV:  11    -0.102476597679E+03   -0.12793E-05   -0.81185E-08   108   0.674E-04    0.141E-04
DAV:  12    -0.102476598322E+03   -0.64314E-06   -0.86591E-09   108   0.349E-04
 154 F= -.10247660E+03 E0= -.10247660E+03  d E =-.320925E-10
       N       E                     dE             d eps       ncg     rms          rms(c)
DAV:   1    -0.102477226836E+03   -0.62916E-03   -0.55006E-01    96   0.265E+00    0.203E-01
DAV:   2    -0.102476968444E+03    0.25839E-03   -0.28434E-03   120   0.181E-01    0.113E-01
DAV:   3    -0.102476773418E+03    0.19503E-03   -0.45768E-04   132   0.646E-02    0.279E-02
DAV:   4    -0.102476775418E+03   -0.20006E-05   -0.78064E-05   132   0.283E-02    0.933E-03
DAV:   5    -0.102476774706E+03    0.71174E-06   -0.34745E-06   132   0.725E-03
 155 F= -.10247677E+03 E0= -.10247677E+03  d E =-.402224E-10
       N       E                     dE             d eps       ncg     rms          rms(c)
DAV:   1    -0.102476423159E+03    0.35226E-03   -0.27509E-01    96   0.187E+00    0.147E-01
DAV:   2    -0.102476294614E+03    0.12854E-03   -0.16295E-03   120   0.142E-01    0.821E-02
DAV:   3    -0.102476206594E+03    0.88019E-04   -0.25476E-04   120   0.524E-02    0.186E-02
DAV:   4    -0.102476213385E+03   -0.67908E-05   -0.49258E-05   132   0.230E-02    0.782E-03
DAV:   5    -0.102476214239E+03   -0.85354E-06   -0.16486E-06   108   0.510E-03
 156 F= -.10247621E+03 E0= -.10247621E+03  d E =-.437737E-10
       N       E                     dE             d eps       ncg     rms          rms(c)
DAV:   1    -0.102476688610E+03   -0.47523E-03   -0.55280E-01    96   0.266E+00    0.228E-01
DAV:   2    -0.102476407411E+03    0.28120E-03   -0.35744E-03   120   0.217E-01    0.121E-01
DAV:   3    -0.102476195927E+03    0.21148E-03   -0.48957E-04   120   0.695E-02    0.361E-02
DAV:   4    -0.102476197219E+03   -0.12920E-05   -0.10528E-04   132   0.327E-02    0.122E-02
DAV:   5    -0.102476197630E+03   -0.41138E-06   -0.63160E-06   132   0.995E-03
 157 F= -.10247620E+03 E0= -.10247620E+03  d E =-.344498E-10
