       N       E                     dE             d eps       ncg     rms          rms(c)
DAV:   1     0.244107662850E+03    0.24411E+03   -0.10208E+04   120   0.484E+02
DAV:   2    -0.243264117480E+02   -0.26843E+03   -0.25426E+03   156   0.921E+01
DAV:   3    -0.103855347075E+03   -0.79529E+02   -0.79312E+02   120   0.551E+01
DAV:   4    -0.107682536952E+03   -0.38272E+01   -0.38140E+01   120   0.175E+01
DAV:   5    -0.107762754549E+03   -0.80218E-01   -0.80146E-01   168   0.285E+00    0.157E+01
DAV:   6    -0.104242711258E+03    0.35200E+01   -0.16020E+00   108   0.436E+00    0.907E+00
DAV:   7    -0.102429792135E+03    0.18129E+01   -0.43143E+00   120   0.638E+00    0.131E+00
DAV:   8    -0.102376091687E+03    0.53700E-01   -0.34432E-01   132   0.221E+00    0.692E-01
DAV:   9    -0.102343167416E+03    0.32924E-01   -0.61176E-02   132   0.678E-01    0.354E-01
DAV:  10    -0.102341221994E+03    0.19454E-02   -0.38044E-03   120   0.209E-01    0.146E-01
DAV:  11    -0.102340168175E+03    0.10538E-02   -0.57255E-03   120   0.203E-01    0.100E-01
DAV:  12    -0.102345677227E+03   -0.55091E-02   -0.18191E-03   108   0.112E-01    0.483E-02
DAV:  13    -0.102348998456E+03   -0.33212E-02   -0.16641E-03   132   0.997E-02    0.388E-02
DAV:  14    -0.102352414354E+03   -0.34159E-02   -0.19708E-04   144   0.449E-02    0.210E-02
DAV:  15    -0.102357253947E+03   -0.48396E-02   -0.51075E-04   108   0.527E-02    0.130E-02
DAV:  16    -0.102358766112E+03   -0.15122E-02   -0.82134E-05   132   0.238E-02    0.775E-03
DAV:  17    -0.102360258323E+03   -0.14922E-02   -0.14630E-04   108   0.254E-02    0.698E-03
DAV:  18    -0.102360533663E+03   -0.27534E-03   -0.73027E-06   144   0.705E-03    0.190E-03
DAV:  19    -0.102360759003E+03   -0.22534E-03   -0.99844E-06   120   0.691E-03    0.195E-03
DAV:  20    -0.102360815110E+03   -0.56107E-04   -0.93971E-07   108   0.304E-03    0.655E-04
DAV:  21    -0.102360847472E+03   -0.32362E-04   -0.83479E-07   108   0.215E-03    0.450E-04
DAV:  22    -0.102360858057E+03   -0.10585E-04   -0.24286E-07   108   0.114E-03    0.240E-04
DAV:  23    -0.102360861824E+03   -0.37671E-05   -0.55061E-08   108   0.562E-04    0.183E-04
DAV:  24    -0.102360865486E+03   -0.36624E-05   -0.62691E-08   108   0.606E-04    0.141E-04
DAV:  25    -0.102360865993E+03   -0.50670E-06   -0.48268E-09   108   0.283E-04
   1 F= -.10236087E+03 E0= -.10236087E+03  d E =-.498535E-11
       N       E                     dE             d eps       ncg     rms          rms(c)
DAV:   1    -0.102357522741E+03    0.33427E-02   -0.83093E-02    96   0.851E-01    0.127E-01
DAV:   2    -0.102357885633E+03   -0.36289E-03   -0.40652E-03   120   0.218E-01    0.560E-02
DAV:   3    -0.102357873809E+03    0.11824E-04   -0.15496E-04   144   0.461E-02    0.299E-02
DAV:   4    -0.102357876517E+03   -0.27077E-05   -0.36198E-05   132   0.222E-02    0.819E-03
DAV:   5    -0.102357875803E+03    0.71342E-06   -0.68743E-06   132   0.100E-02
   2 F= -.10235788E+03 E0= -.10235788E+03  d E =-.449300E-11
       N       E                     dE             d eps       ncg     rms          rms(c)
DAV:   1    -0.102356332666E+03    0.15439E-02   -0.33818E-01    96   0.168E+00    0.254E-01
DAV:   2    -0.102357743702E+03   -0.14110E-02   -0.15847E-02   132   0.432E-01    0.112E-01
DAV:   3    -0.102357697600E+03    0.46102E-04   -0.57488E-04   144   0.888E-02    0.595E-02
DAV:   4    -0.102357714357E+03   -0.16758E-04   -0.14004E-04   132   0.442E-02    0.170E-02
DAV:   5    -0.102357711184E+03    0.31734E-05   -0.25362E-05   132   0.196E-02    0.955E-03
DAV:   6    -0.102357710883E+03    0.30097E-06   -0.50208E-06   144   0.764E-03
   3 F= -.10235771E+03 E0= -.10235771E+03  d E =-.614798E-11
       N       E                     dE             d eps       ncg     rms          rms(c)
DAV:   1    -0.102357286692E+03    0.42449E-03   -0.16880E-01    96   0.120E+00    0.158E-01
DAV:   2    -0.102357990543E+03   -0.70385E-03   -0.76867E-03   132   0.290E-01    0.765E-02
DAV:   3    -0.102357977450E+03    0.13093E-04   -0.26210E-04   144   0.599E-02    0.395E-02
DAV:   4    -0.102357989903E+03   -0.12453E-04   -0.61791E-05   132   0.288E-02    0.116E-02
DAV:   5    -0.102357989559E+03    0.34367E-06   -0.10603E-05   132   0.126E-02    0.609E-03
DAV:   6    -0.102357990020E+03   -0.46079E-06   -0.29528E-06   132   0.571E-03
   4 F= -.10235799E+03 E0= -.10235799E+03  d E =-.845953E-10
       N       E                     dE             d eps       ncg     rms          rms(c)
DAV:   1    -0.102356236446E+03    0.17531E-02   -0.33836E-01    96   0.167E+00    0.235E-01
DAV:   2    -0.102357691228E+03   -0.14548E-02   -0.15877E-02   132   0.425E-01    0.111E-01
DAV:   3    -0.102357651087E+03    0.40141E-04   -0.54197E-04   132   0.880E-02    0.568E-02
DAV:   4    -0.102357667836E+03   -0.16749E-04   -0.13841E-04   132   0.436E-02    0.161E-02
DAV:   5    -0.102357663502E+03    0.43340E-05   -0.23627E-05   144   0.188E-02    0.859E-03
DAV:   6    -0.102357663249E+03    0.25287E-06   -0.53495E-06   132   0.785E-03
   5 F= -.10235766E+03 E0= -.10235766E+03  d E =-.757397E-11
       N       E                     dE             d eps       ncg     rms          rms(c)
DAV:   1    -0.102355645993E+03    0.20175E-02   -0.16706E-01    96   0.119E+00    0.159E-01
DAV:   2    -0.102356550319E+03   -0.90433E-03   -0.96579E-03   120   0.329E-01    0.936E-02
DAV:   3    -0.102356515482E+03    0.34837E-04   -0.31364E-04   144   0.690E-02    0.510E-02
DAV:   4    -0.102356523080E+03   -0.75985E-05   -0.11157E-04   132   0.385E-02    0.120E-02
DAV:   5    -0.102356521438E+03    0.16420E-05   -0.19271E-05   132   0.161E-02    0.764E-03
DAV:   6    -0.102356522921E+03   -0.14834E-05   -0.37276E-06   132   0.617E-03    0.478E-03
DAV:   7    -0.102356528446E+03   -0.55242E-05   -0.56811E-07   108   0.268E-03    0.167E-03
DAV:   8    -0.102356533985E+03   -0.55397E-05   -0.43510E-07   108   0.209E-03    0.600E-04
DAV:   9    -0.102356539901E+03   -0.59161E-05   -0.36574E-07   108   0.167E-03    0.597E-04
DAV:  10    -0.102356547172E+03   -0.72706E-05   -0.63190E-07   120   0.166E-03    0.322E-04
DAV:  11    -0.102356548341E+03   -0.11695E-05   -0.32161E-08   120   0.668E-04    0.256E-04
DAV:  12    -0.102356550030E+03   -0.16886E-05   -0.38562E-08   108   0.498E-04    0.134E-04
DAV:  13    -0.102356551345E+03   -0.13146E-05   -0.33129E-08   108   0.392E-04    0.877E-05
DAV:  14    -0.102356552245E+03   -0.90064E-06   -0.14771E-08   108   0.277E-04
   6 F= -.10235655E+03 E0= -.10235655E+03  d E =-.696548E-11
       N       E                     dE             d eps       ncg     rms          rms(c)
DAV:   1    -0.102354285208E+03    0.22661E-02   -0.33874E-01    96   0.168E+00    0.263E-01
DAV:   2    -0.102356564768E+03   -0.22796E-02   -0.24731E-02   132   0.501E-01    0.170E-01
DAV:   3    -0.102356394013E+03    0.17076E-03   -0.67085E-04   132   0.103E-01    0.896E-02
DAV:   4    -0.102356392246E+03    0.17668E-05   -0.41037E-04   132   0.693E-02    0.164E-02
DAV:   5    -0.102356383352E+03    0.88941E-05   -0.59817E-05   132   0.272E-02    0.120E-02
DAV:   6    -0.102356383288E+03    0.63633E-07   -0.10159E-05   132   0.881E-03    0.810E-03
DAV:   7    -0.102356394946E+03   -0.11658E-04   -0.12504E-06   120   0.374E-03    0.317E-03
DAV:   8    -0.102356412854E+03   -0.17908E-04   -0.17290E-06   132   0.436E-03    0.137E-03
DAV:   9    -0.102356427087E+03   -0.14232E-04   -0.98684E-07   120   0.244E-03    0.156E-03
DAV:  10    -0.102356450246E+03   -0.23159E-04   -0.13745E-06   132   0.241E-03    0.732E-04
DAV:  11    -0.102356454337E+03   -0.40913E-05   -0.88147E-08   108   0.898E-04    0.466E-04
DAV:  12    -0.102356463057E+03   -0.87197E-05   -0.26245E-07   108   0.108E-03    0.261E-04
DAV:  13    -0.102356465756E+03   -0.26986E-05   -0.72989E-08   108   0.562E-04    0.234E-04
DAV:  14    -0.102356468008E+03   -0.22523E-05   -0.21111E-08   108   0.394E-04    0.880E-05
DAV:  15    -0.102356469072E+03   -0.10640E-05   -0.12096E-08   108   0.277E-04    0.763E-05
DAV:  16    -0.102356469689E+03   -0.61701E-06    0.20102E-09   108   0.178E-04
   7 F= -.10235647E+03 E0= -.10235647E+03  d E =-.903429E-10
       N       E                     dE             d eps       ncg     rms          rms(c)
DAV:   1    -0.102355435603E+03    0.10335E-02   -0.19252E-01    96   0.133E+00    0.193E-01
DAV:   2    -0.102356807664E+03   -0.13721E-02   -0.14301E-02   120   0.422E-01    0.120E-01
DAV:   3    -0.102356726596E+03    0.81068E-04   -0.39816E-04   144   0.852E-02    0.656E-02
DAV:   4    -0.102356725847E+03    0.74942E-06   -0.21502E-04   132   0.569E-02    0.122E-02
DAV:   5    -0.102356721026E+03    0.48205E-05   -0.43246E-05   132   0.236E-02    0.970E-03
DAV:   6    -0.102356721606E+03   -0.58011E-06   -0.40823E-06   144   0.643E-03
   8 F= -.10235672E+03 E0= -.10235672E+03  d E =-.889114E-10
       N       E                     dE             d eps       ncg     rms          rms(c)
DAV:   1    -0.102355068870E+03    0.16522E-02   -0.33499E-01    96   0.175E+00    0.254E-01
DAV:   2    -0.102357071221E+03   -0.20024E-02   -0.20624E-02   132   0.486E-01    0.154E-01
DAV:   3    -0.102356998992E+03    0.72229E-04   -0.56291E-04   132   0.912E-02    0.805E-02
DAV:   4    -0.102356998430E+03    0.56228E-06   -0.22238E-04   132   0.553E-02    0.157E-02
DAV:   5    -0.102356987165E+03    0.11265E-04   -0.37801E-05   144   0.233E-02    0.101E-02
DAV:   6    -0.102356987740E+03   -0.57547E-06   -0.74090E-06   132   0.914E-03
   9 F= -.10235699E+03 E0= -.10235699E+03  d E =-.514585E-11
       N       E                     dE             d eps       ncg     rms          rms(c)
DAV:   1    -0.102355073080E+03    0.19141E-02   -0.17314E-01    96   0.123E+00    0.183E-01
DAV:   2    -0.102356193419E+03   -0.11203E-02   -0.11273E-02   132   0.364E-01    0.116E-01
DAV:   3    -0.102356167958E+03    0.25460E-04   -0.28671E-04   132   0.690E-02    0.620E-02
DAV:   4    -0.102356187946E+03   -0.19988E-04   -0.16331E-04   120   0.473E-02    0.119E-02
DAV:   5    -0.102356182507E+03    0.54389E-05   -0.32636E-05   132   0.208E-02    0.821E-03
DAV:   6    -0.102356183516E+03   -0.10088E-05   -0.66280E-06   132   0.734E-03    0.527E-03
DAV:   7    -0.102356191280E+03   -0.77640E-05   -0.71323E-07   108   0.323E-03    0.223E-03
DAV:   8    -0.102356200788E+03   -0.95076E-05   -0.93606E-07   108   0.322E-03    0.758E-04
DAV:   9    -0.102356208794E+03   -0.80065E-05   -0.91329E-07   120   0.242E-03    0.103E-03
DAV:  10    -0.102356217499E+03   -0.87044E-05   -0.49298E-07    96   0.178E-03    0.399E-04
DAV:  11    -0.102356220590E+03   -0.30917E-05   -0.18815E-07   108   0.950E-04    0.275E-04
DAV:  12    -0.102356223272E+03   -0.26812E-05   -0.67613E-08    96   0.621E-04    0.123E-04
DAV:  13    -0.102356225482E+03   -0.22103E-05   -0.90653E-08   108   0.592E-04    0.135E-04
DAV:  14    -0.102356226536E+03   -0.10539E-05   -0.21697E-08   108   0.336E-04    0.105E-04
DAV:  15    -0.102356227109E+03   -0.57321E-06   -0.44835E-09   108   0.228E-04
  10 F= -.10235623E+03 E0= -.10235623E+03  d E =-.628299E-11
       N       E                     dE             d eps       ncg     rms          rms(c)
DAV:   1    -0.102353123050E+03    0.31035E-02   -0.34409E-01    96   0.172E+00    0.262E-01
DAV:   2    -0.102355958921E+03   -0.28359E-02   -0.28747E-02   132   0.551E-01    0.187E-01
DAV:   3    -0.102355783641E+03    0.17528E-03   -0.64487E-04   144   0.103E-01    0.102E-01
DAV:   4    -0.102355793548E+03   -0.99061E-05   -0.50926E-04   120   0.830E-02    0.181E-02
DAV:   5    -0.102355781684E+03    0.11864E-04   -0.12532E-04   132   0.390E-02    0.133E-02
DAV:   6    -0.102355781561E+03    0.12242E-06   -0.19890E-05   132   0.118E-02    0.860E-03
DAV:   7    -0.102355798972E+03   -0.17410E-04   -0.26069E-06   132   0.512E-03    0.357E-03
DAV:   8    -0.102355825556E+03   -0.26585E-04   -0.34642E-06   132   0.523E-03    0.138E-03
DAV:   9    -0.102355847146E+03   -0.21589E-04   -0.19227E-06   132   0.319E-03    0.180E-03
DAV:  10    -0.102355868217E+03   -0.21071E-04   -0.15961E-06   132   0.276E-03    0.565E-04
DAV:  11    -0.102355875500E+03   -0.72828E-05   -0.22727E-07   108   0.121E-03    0.268E-04
DAV:  12    -0.102355883431E+03   -0.79309E-05   -0.36578E-07    96   0.114E-03    0.271E-04
DAV:  13    -0.102355885610E+03   -0.21793E-05   -0.39773E-08   108   0.433E-04    0.216E-04
DAV:  14    -0.102355888138E+03   -0.25279E-05   -0.46770E-08    96   0.467E-04    0.603E-05
DAV:  15    -0.102355888840E+03   -0.70188E-06   -0.59831E-09   108   0.238E-04
  11 F= -.10235589E+03 E0= -.10235589E+03  d E =-.434364E-11
       N       E                     dE             d eps       ncg     rms          rms(c)
DAV:   1    -0.102356195983E+03   -0.30785E-03   -0.16996E-01    96   0.123E+00    0.182E-01
DAV:   2    -0.102357426065E+03   -0.12301E-02   -0.12636E-02   132   0.386E-01    0.124E-01
DAV:   3    -0.102357355360E+03    0.70705E-04   -0.29691E-04   156   0.713E-02    0.681E-02
DAV:   4    -0.102357357108E+03   -0.17478E-05   -0.21132E-04   132   0.548E-02    0.124E-02
DAV:   5    -0.102357351656E+03    0.54523E-05   -0.51863E-05   132   0.259E-02    0.952E-03
DAV:   6    -0.102357351748E+03   -0.92006E-07   -0.97663E-06   132   0.916E-03
  12 F= -.10235735E+03 E0= -.10235735E+03  d E =-.489406E-11
       N       E                     dE             d eps       ncg     rms          rms(c)
DAV:   1    -0.102355850825E+03    0.15008E-02   -0.33351E-01    96   0.173E+00    0.263E-01
DAV:   2    -0.102357523557E+03   -0.16727E-02   -0.17584E-02   132   0.453E-01    0.134E-01
DAV:   3    -0.102357489702E+03    0.33855E-04   -0.57293E-04   132   0.912E-02    0.709E-02
DAV:   4    -0.102357519860E+03   -0.30159E-04   -0.19031E-04   132   0.550E-02    0.161E-02
DAV:   5    -0.102357516003E+03    0.38575E-05   -0.44418E-05   144   0.255E-02    0.110E-02
DAV:   6    -0.102357515877E+03    0.12612E-06   -0.64513E-06   132   0.850E-03
  13 F= -.10235752E+03 E0= -.10235752E+03  d E =-.524829E-11
       N       E                     dE             d eps       ncg     rms          rms(c)
DAV:   1    -0.102355210615E+03    0.23054E-02   -0.16880E-01    96   0.128E+00    0.195E-01
DAV:   2    -0.102356522488E+03   -0.13119E-02   -0.13624E-02   132   0.397E-01    0.116E-01
DAV:   3    -0.102356463032E+03    0.59456E-04   -0.36784E-04   132   0.774E-02    0.668E-02
DAV:   4    -0.102356474442E+03   -0.11410E-04   -0.18930E-04   132   0.554E-02    0.133E-02
DAV:   5    -0.102356471669E+03    0.27730E-05   -0.53107E-05   132   0.265E-02    0.106E-02
DAV:   6    -0.102356469227E+03    0.24422E-05   -0.56629E-06   132   0.815E-03    0.732E-03
DAV:   7    -0.102356472726E+03   -0.34990E-05   -0.18182E-06   132   0.504E-03    0.280E-03
DAV:   8    -0.102356479169E+03   -0.64433E-05   -0.49711E-07   108   0.318E-03    0.781E-04
DAV:   9    -0.102356486715E+03   -0.75462E-05   -0.50798E-07   108   0.226E-03    0.975E-04
DAV:  10    -0.102356497479E+03   -0.10763E-04   -0.60927E-07   108   0.192E-03    0.380E-04
DAV:  11    -0.102356499860E+03   -0.23817E-05   -0.10317E-07   120   0.894E-04    0.310E-04
DAV:  12    -0.102356503337E+03   -0.34767E-05   -0.88850E-08   108   0.712E-04    0.147E-04
DAV:  13    -0.102356505868E+03   -0.25314E-05   -0.80554E-08   108   0.588E-04    0.132E-04
DAV:  14    -0.102356507360E+03   -0.14912E-05   -0.27015E-08   108   0.363E-04    0.991E-05
DAV:  15    -0.102356508042E+03   -0.68205E-06   -0.40970E-09   108   0.221E-04
  14 F= -.10235651E+03 E0= -.10235651E+03  d E =-.601190E-11
       N       E                     dE             d eps       ncg     rms          rms(c)
DAV:   1    -0.102353704444E+03    0.28029E-02   -0.34258E-01    96   0.174E+00    0.261E-01
DAV:   2    -0.102356283654E+03   -0.25792E-02   -0.26292E-02   132   0.544E-01    0.176E-01
DAV:   3    -0.102356146401E+03    0.13725E-03   -0.62718E-04   132   0.102E-01    0.973E-02
DAV:   4    -0.102356147683E+03   -0.12826E-05   -0.41778E-04   120   0.771E-02    0.175E-02
DAV:   5    -0.102356139311E+03    0.83727E-05   -0.10246E-04   132   0.358E-02    0.135E-02
DAV:   6    -0.102356141629E+03   -0.23185E-05   -0.17722E-05   132   0.120E-02    0.890E-03
DAV:   7    -0.102356161037E+03   -0.19408E-04   -0.32940E-06   132   0.601E-03    0.346E-03
DAV:   8    -0.102356185117E+03   -0.24080E-04   -0.22728E-06   132   0.422E-03    0.115E-03
DAV:   9    -0.102356208764E+03   -0.23646E-04   -0.23131E-06   120   0.346E-03    0.156E-03
DAV:  10    -0.102356228192E+03   -0.19428E-04   -0.15826E-06   132   0.273E-03    0.710E-04
DAV:  11    -0.102356236171E+03   -0.79791E-05   -0.38068E-07   108   0.138E-03    0.277E-04
DAV:  12    -0.102356242079E+03   -0.59080E-05   -0.30183E-07   108   0.106E-03    0.221E-04
DAV:  13    -0.102356244223E+03   -0.21440E-05   -0.58357E-08   108   0.507E-04    0.187E-04
DAV:  14    -0.102356245882E+03   -0.16587E-05   -0.33280E-08   108   0.427E-04    0.640E-05
DAV:  15    -0.102356246363E+03   -0.48157E-06   -0.28188E-09   120   0.213E-04
  15 F= -.10235625E+03 E0= -.10235625E+03  d E =-.446854E-11
       N       E                     dE             d eps       ncg     rms          rms(c)
DAV:   1    -0.102355651434E+03    0.59445E-03   -0.17115E-01    96   0.122E+00    0.183E-01
DAV:   2    -0.102356981489E+03   -0.13301E-02   -0.13538E-02   132   0.391E-01    0.130E-01
DAV:   3    -0.102356902078E+03    0.79411E-04   -0.31129E-04   144   0.736E-02    0.696E-02
DAV:   4    -0.102356905519E+03   -0.34412E-05   -0.23893E-04   132   0.569E-02    0.129E-02
DAV:   5    -0.102356898212E+03    0.73077E-05   -0.55071E-05   132   0.262E-02    0.946E-03
DAV:   6    -0.102356898839E+03   -0.62699E-06   -0.10340E-05   132   0.840E-03    0.571E-03
DAV:   7    -0.102356908318E+03   -0.94789E-05   -0.78076E-07   108   0.311E-03    0.273E-03
DAV:   8    -0.102356925205E+03   -0.16888E-04   -0.23097E-06   132   0.421E-03    0.109E-03
DAV:   9    -0.102356935657E+03   -0.10452E-04   -0.89938E-07   120   0.243E-03    0.134E-03
DAV:  10    -0.102356949397E+03   -0.13740E-04   -0.93477E-07    96   0.218E-03    0.387E-04
DAV:  11    -0.102356952423E+03   -0.30263E-05   -0.17416E-07   108   0.986E-04    0.268E-04
DAV:  12    -0.102356956108E+03   -0.36855E-05   -0.10091E-07    96   0.709E-04    0.123E-04
DAV:  13    -0.102356958849E+03   -0.27407E-05   -0.10952E-07   108   0.629E-04    0.129E-04
DAV:  14    -0.102356960147E+03   -0.12979E-05   -0.23582E-08   108   0.359E-04    0.102E-04
DAV:  15    -0.102356960743E+03   -0.59626E-06   -0.15065E-09   108   0.215E-04
  16 F= -.10235696E+03 E0= -.10235696E+03  d E =-.556639E-11
       N       E                     dE             d eps       ncg     rms          rms(c)
DAV:   1    -0.102354840988E+03    0.21192E-02   -0.33873E-01    96   0.176E+00    0.261E-01
DAV:   2    -0.102356889729E+03   -0.20487E-02   -0.21292E-02   132   0.503E-01    0.155E-01
DAV:   3    -0.102356793094E+03    0.96635E-04   -0.58877E-04   144   0.969E-02    0.804E-02
DAV:   4    -0.102356800942E+03   -0.78484E-05   -0.29333E-04   132   0.640E-02    0.164E-02
DAV:   5    -0.102356789286E+03    0.11656E-04   -0.60227E-05   132   0.289E-02    0.116E-02
DAV:   6    -0.102356788764E+03    0.52216E-06   -0.11649E-05   132   0.104E-02    0.735E-03
DAV:   7    -0.102356798530E+03   -0.97663E-05   -0.15997E-06   132   0.493E-03    0.283E-03
DAV:   8    -0.102356813154E+03   -0.14624E-04   -0.19275E-06   132   0.495E-03    0.142E-03
DAV:   9    -0.102356826036E+03   -0.12883E-04   -0.80002E-07   108   0.276E-03    0.124E-03
DAV:  10    -0.102356843657E+03   -0.17621E-04   -0.11418E-06   120   0.245E-03    0.532E-04
DAV:  11    -0.102356848906E+03   -0.52490E-05   -0.14875E-07   120   0.118E-03    0.386E-04
DAV:  12    -0.102356856111E+03   -0.72046E-05   -0.17784E-07   108   0.949E-04    0.201E-04
DAV:  13    -0.102356859360E+03   -0.32494E-05   -0.75526E-08   108   0.571E-04    0.216E-04
DAV:  14    -0.102356861742E+03   -0.23817E-05   -0.27690E-08   108   0.399E-04    0.107E-04
DAV:  15    -0.102356862832E+03   -0.10905E-05   -0.93046E-09   108   0.261E-04    0.470E-05
DAV:  16    -0.102356863708E+03   -0.87557E-06   -0.41420E-09    96   0.227E-04
  17 F= -.10235686E+03 E0= -.10235686E+03  d E =-.463946E-11
       N       E                     dE             d eps       ncg     rms          rms(c)
DAV:   1    -0.102355929550E+03    0.93328E-03   -0.17213E-01    96   0.124E+00    0.181E-01
DAV:   2    -0.102356997097E+03   -0.10675E-02   -0.11091E-02   120   0.362E-01    0.117E-01
DAV:   3    -0.102356943842E+03    0.53255E-04   -0.28394E-04   132   0.668E-02    0.619E-02
DAV:   4    -0.102356930750E+03    0.13092E-04   -0.13688E-04   132   0.423E-02    0.110E-02
DAV:   5    -0.102356926157E+03    0.45929E-05   -0.20564E-05   132   0.166E-02    0.773E-03
DAV:   6    -0.102356930797E+03   -0.46400E-05   -0.60602E-06   132   0.798E-03    0.435E-03
DAV:   7    -0.102356947770E+03   -0.16972E-04   -0.21996E-06   120   0.530E-03    0.155E-03
DAV:   8    -0.102356966035E+03   -0.18265E-04   -0.15069E-06   120   0.398E-03    0.104E-03
DAV:   9    -0.102356982071E+03   -0.16036E-04   -0.14448E-06   120   0.296E-03    0.102E-03
DAV:  10    -0.102356995068E+03   -0.12997E-04   -0.10848E-06   120   0.221E-03    0.376E-04
DAV:  11    -0.102356997952E+03   -0.28845E-05   -0.85156E-08   120   0.846E-04    0.244E-04
DAV:  12    -0.102357002465E+03   -0.45130E-05   -0.25061E-07   108   0.102E-03    0.125E-04
DAV:  13    -0.102357003501E+03   -0.10362E-05   -0.37247E-08   108   0.451E-04    0.119E-04
DAV:  14    -0.102357004579E+03   -0.10781E-05   -0.19767E-08   108   0.360E-04    0.504E-05
DAV:  15    -0.102357004959E+03   -0.37983E-06   -0.34676E-09   108   0.205E-04
  18 F= -.10235700E+03 E0= -.10235700E+03  d E =-.476976E-11
       N       E                     dE             d eps       ncg     rms          rms(c)
DAV:   1    -0.102355474366E+03    0.15302E-02   -0.33370E-01    96   0.175E+00    0.255E-01
DAV:   2    -0.102357305860E+03   -0.18315E-02   -0.19224E-02   132   0.474E-01    0.146E-01
DAV:   3    -0.102357234248E+03    0.71612E-04   -0.55752E-04   132   0.906E-02    0.762E-02
DAV:   4    -0.102357231112E+03    0.31363E-05   -0.19733E-04   132   0.542E-02    0.159E-02
DAV:   5    -0.102357220258E+03    0.10854E-04   -0.39162E-05   144   0.241E-02    0.102E-02
DAV:   6    -0.102357221825E+03   -0.15664E-05   -0.69477E-06   120   0.889E-03    0.659E-03
DAV:   7    -0.102357235274E+03   -0.13450E-04   -0.18669E-06   132   0.646E-03    0.179E-03
DAV:   8    -0.102357247946E+03   -0.12671E-04   -0.19664E-06   132   0.537E-03    0.197E-03
DAV:   9    -0.102357255468E+03   -0.75217E-05   -0.45919E-07   108   0.257E-03    0.151E-03
DAV:  10    -0.102357271196E+03   -0.15728E-04   -0.60201E-07   108   0.188E-03    0.615E-04
DAV:  11    -0.102357284185E+03   -0.12990E-04   -0.82159E-07   120   0.199E-03    0.693E-04
DAV:  12    -0.102357290653E+03   -0.64676E-05   -0.17242E-07   108   0.120E-03    0.397E-04
DAV:  13    -0.102357295974E+03   -0.53210E-05   -0.14244E-07   108   0.102E-03    0.699E-04
DAV:  14    -0.102357297722E+03   -0.17480E-05   -0.30199E-08   120   0.629E-04    0.288E-04
DAV:  15    -0.102357299033E+03   -0.13109E-05   -0.16704E-08   108   0.459E-04    0.199E-04
DAV:  16    -0.102357300195E+03   -0.11619E-05   -0.11621E-08   108   0.311E-04    0.132E-04
DAV:  17    -0.102357300653E+03   -0.45784E-06    0.22745E-09   108   0.146E-04
  19 F= -.10235730E+03 E0= -.10235730E+03  d E =-.531928E-11
       N       E                     dE             d eps       ncg     rms          rms(c)
DAV:   1    -0.102355492235E+03    0.18080E-02   -0.16615E-01    96   0.127E+00    0.182E-01
DAV:   2    -0.102356774273E+03   -0.12820E-02   -0.13342E-02   132   0.396E-01    0.113E-01
DAV:   3    -0.102356710760E+03    0.63512E-04   -0.34524E-04   144   0.745E-02    0.650E-02
DAV:   4    -0.102356692008E+03    0.18753E-04   -0.15766E-04   132   0.488E-02    0.118E-02
DAV:   5    -0.102356685709E+03    0.62991E-05   -0.35486E-05   144   0.219E-02    0.926E-03
DAV:   6    -0.102356685446E+03    0.26220E-06   -0.43244E-06   132   0.760E-03
  20 F= -.10235669E+03 E0= -.10235669E+03  d E =-.513389E-11
       N       E                     dE             d eps       ncg     rms          rms(c)
DAV:   1    -0.102354519163E+03    0.21665E-02   -0.33706E-01    96   0.170E+00    0.259E-01
DAV:   2    -0.102356771013E+03   -0.22518E-02   -0.24137E-02   132   0.502E-01    0.163E-01
DAV:   3    -0.102356632468E+03    0.13854E-03   -0.67576E-04   132   0.104E-01    0.847E-02
DAV:   4    -0.102356651262E+03   -0.18794E-04   -0.38872E-04   132   0.685E-02    0.169E-02
DAV:   5    -0.102356643171E+03    0.80908E-05   -0.56394E-05   132   0.268E-02    0.119E-02
DAV:   6    -0.102356642525E+03    0.64612E-06   -0.96389E-06   132   0.890E-03
  21 F= -.10235664E+03 E0= -.10235664E+03  d E =-.938397E-10
       N       E                     dE             d eps       ncg     rms          rms(c)
DAV:   1    -0.102356924806E+03   -0.28163E-03   -0.16769E-01    96   0.117E+00    0.161E-01
DAV:   2    -0.102357967932E+03   -0.10431E-02   -0.10962E-02   132   0.351E-01    0.106E-01
DAV:   3    -0.102357927753E+03    0.40179E-04   -0.31698E-04   132   0.729E-02    0.556E-02
DAV:   4    -0.102357952394E+03   -0.24641E-04   -0.15975E-04   132   0.464E-02    0.129E-02
DAV:   5    -0.102357949917E+03    0.24771E-05   -0.23930E-05   132   0.182E-02    0.847E-03
DAV:   6    -0.102357948608E+03    0.13089E-05   -0.45704E-06   132   0.667E-03    0.497E-03
DAV:   7    -0.102357949883E+03   -0.12746E-05   -0.44933E-07   108   0.271E-03    0.159E-03
DAV:   8    -0.102357951845E+03   -0.19619E-05   -0.29892E-07   108   0.213E-03    0.560E-04
DAV:   9    -0.102357955016E+03   -0.31706E-05   -0.26834E-07   108   0.163E-03    0.604E-04
DAV:  10    -0.102357958895E+03   -0.38796E-05   -0.25187E-07   108   0.132E-03    0.299E-04
DAV:  11    -0.102357959924E+03   -0.10290E-05   -0.47012E-08   108   0.673E-04    0.221E-04
DAV:  12    -0.102357961101E+03   -0.11771E-05   -0.27495E-08   108   0.444E-04    0.135E-04
DAV:  13    -0.102357962404E+03   -0.13029E-05   -0.46941E-08   108   0.444E-04    0.825E-05
DAV:  14    -0.102357963148E+03   -0.74365E-06   -0.16132E-08   108   0.284E-04
  22 F= -.10235796E+03 E0= -.10235796E+03  d E =-.939450E-10
       N       E                     dE             d eps       ncg     rms          rms(c)
DAV:   1    -0.102356311337E+03    0.16511E-02   -0.33734E-01    96   0.168E+00    0.236E-01
DAV:   2    -0.102357761211E+03   -0.14499E-02   -0.15979E-02   132   0.428E-01    0.111E-01
DAV:   3    -0.102357714404E+03    0.46807E-04   -0.54621E-04   144   0.883E-02    0.567E-02
DAV:   4    -0.102357726435E+03   -0.12031E-04   -0.13694E-04   132   0.442E-02    0.161E-02
DAV:   5    -0.102357723060E+03    0.33753E-05   -0.24437E-05   132   0.194E-02    0.911E-03
DAV:   6    -0.102357724021E+03   -0.96062E-06   -0.57232E-06   132   0.811E-03
  23 F= -.10235772E+03 E0= -.10235772E+03  d E =-.681738E-11
       N       E                     dE             d eps       ncg     rms          rms(c)
DAV:   1    -0.102356996372E+03    0.72669E-03   -0.16879E-01    96   0.119E+00    0.156E-01
DAV:   2    -0.102357736399E+03   -0.74003E-03   -0.79727E-03   132   0.296E-01    0.786E-02
DAV:   3    -0.102357719838E+03    0.16561E-04   -0.26102E-04   132   0.610E-02    0.402E-02
DAV:   4    -0.102357736208E+03   -0.16370E-04   -0.74669E-05   132   0.314E-02    0.116E-02
DAV:   5    -0.102357737205E+03   -0.99721E-06   -0.11826E-05   132   0.132E-02    0.622E-03
DAV:   6    -0.102357738578E+03   -0.13726E-05   -0.29686E-06   132   0.583E-03    0.336E-03
DAV:   7    -0.102357740955E+03   -0.23771E-05   -0.33000E-07   108   0.217E-03    0.112E-03
DAV:   8    -0.102357743426E+03   -0.24714E-05   -0.20191E-07   108   0.179E-03    0.509E-04
DAV:   9    -0.102357745983E+03   -0.25563E-05   -0.12678E-07   108   0.130E-03    0.364E-04
DAV:  10    -0.102357749044E+03   -0.30617E-05   -0.16315E-07   108   0.118E-03    0.234E-04
DAV:  11    -0.102357749786E+03   -0.74182E-06   -0.34288E-08   120   0.657E-04
  24 F= -.10235775E+03 E0= -.10235775E+03  d E =-.836225E-10
       N       E                     dE             d eps       ncg     rms          rms(c)
DAV:   1    -0.102355865282E+03    0.18838E-02   -0.34123E-01    96   0.169E+00    0.262E-01
DAV:   2    -0.102357430102E+03   -0.15648E-02   -0.17389E-02   132   0.454E-01    0.125E-01
DAV:   3    -0.102357361554E+03    0.68548E-04   -0.57627E-04   132   0.923E-02    0.691E-02
DAV:   4    -0.102357369955E+03   -0.84016E-05   -0.17864E-04   132   0.503E-02    0.187E-02
DAV:   5    -0.102357365864E+03    0.40912E-05   -0.30464E-05   144   0.211E-02    0.945E-03
DAV:   6    -0.102357367013E+03   -0.11488E-05   -0.53041E-06   132   0.794E-03    0.593E-03
DAV:   7    -0.102357374410E+03   -0.73976E-05   -0.87519E-07   120   0.349E-03    0.157E-03
DAV:   8    -0.102357380207E+03   -0.57971E-05   -0.38229E-07   108   0.250E-03    0.876E-04
DAV:   9    -0.102357390422E+03   -0.10214E-04   -0.72520E-07   120   0.266E-03    0.564E-04
DAV:  10    -0.102357397989E+03   -0.75677E-05   -0.54718E-07   108   0.203E-03    0.487E-04
DAV:  11    -0.102357400024E+03   -0.20347E-05   -0.99227E-08   108   0.997E-04    0.373E-04
DAV:  12    -0.102357402034E+03   -0.20098E-05   -0.46708E-08   108   0.576E-04    0.192E-04
DAV:  13    -0.102357404626E+03   -0.25918E-05   -0.99288E-08    96   0.656E-04    0.148E-04
DAV:  14    -0.102357405667E+03   -0.10412E-05   -0.21553E-08   108   0.342E-04    0.146E-04
DAV:  15    -0.102357406188E+03   -0.52153E-06   -0.79066E-10   108   0.225E-04
  25 F= -.10235741E+03 E0= -.10235741E+03  d E =-.753064E-11
       N       E                     dE             d eps       ncg     rms          rms(c)
DAV:   1    -0.102356556110E+03    0.84956E-03   -0.16628E-01    96   0.124E+00    0.183E-01
DAV:   2    -0.102357627248E+03   -0.10711E-02   -0.11657E-02   132   0.360E-01    0.935E-02
DAV:   3    -0.102357561797E+03    0.65451E-04   -0.37152E-04   132   0.750E-02    0.510E-02
DAV:   4    -0.102357561836E+03   -0.38298E-07   -0.12957E-04   132   0.427E-02    0.132E-02
DAV:   5    -0.102357560205E+03    0.16303E-05   -0.23833E-05   132   0.184E-02    0.818E-03
DAV:   6    -0.102357560760E+03   -0.55430E-06   -0.36639E-06   132   0.669E-03
  26 F= -.10235756E+03 E0= -.10235756E+03  d E =-.781290E-10
       N       E                     dE             d eps       ncg     rms          rms(c)
DAV:   1    -0.102355530101E+03    0.20301E-02   -0.34087E-01    96   0.170E+00    0.258E-01
DAV:   2    -0.102357280005E+03   -0.17499E-02   -0.18991E-02   132   0.465E-01    0.133E-01
DAV:   3    -0.102357201975E+03    0.78030E-04   -0.59820E-04   132   0.952E-02    0.717E-02
DAV:   4    -0.102357216768E+03   -0.14793E-04   -0.22695E-04   132   0.548E-02    0.178E-02
DAV:   5    -0.102357210942E+03    0.58260E-05   -0.36626E-05   144   0.224E-02    0.987E-03
DAV:   6    -0.102357211160E+03   -0.21777E-06   -0.62029E-06   132   0.812E-03
  27 F= -.10235721E+03 E0= -.10235721E+03  d E =-.714528E-11
       N       E                     dE             d eps       ncg     rms          rms(c)
DAV:   1    -0.102356225008E+03    0.98593E-03   -0.16819E-01    96   0.119E+00    0.159E-01
DAV:   2    -0.102356943874E+03   -0.71887E-03   -0.78517E-03   120   0.299E-01    0.793E-02
DAV:   3    -0.102356930455E+03    0.13419E-04   -0.29164E-04   144   0.641E-02    0.412E-02
DAV:   4    -0.102356944966E+03   -0.14511E-04   -0.68473E-05   132   0.305E-02    0.117E-02
DAV:   5    -0.102356946371E+03   -0.14048E-05   -0.12077E-05   132   0.133E-02    0.650E-03
DAV:   6    -0.102356948801E+03   -0.24296E-05   -0.31541E-06   132   0.587E-03    0.351E-03
DAV:   7    -0.102356952796E+03   -0.39958E-05   -0.38181E-07   108   0.217E-03    0.114E-03
DAV:   8    -0.102356956601E+03   -0.38050E-05   -0.25076E-07   108   0.168E-03    0.512E-04
DAV:   9    -0.102356960676E+03   -0.40751E-05   -0.19899E-07   108   0.140E-03    0.369E-04
DAV:  10    -0.102356965073E+03   -0.43969E-05   -0.32539E-07   108   0.142E-03    0.250E-04
DAV:  11    -0.102356966015E+03   -0.94166E-06   -0.44962E-08   120   0.721E-04
  28 F= -.10235697E+03 E0= -.10235697E+03  d E =-.551110E-11
       N       E                     dE             d eps       ncg     rms          rms(c)
DAV:   1    -0.102354726504E+03    0.22386E-02   -0.33550E-01    96   0.167E+00    0.241E-01
DAV:   2    -0.102356939461E+03   -0.22130E-02   -0.23642E-02   132   0.488E-01    0.157E-01
DAV:   3    -0.102356793338E+03    0.14612E-03   -0.62808E-04   132   0.999E-02    0.826E-02
DAV:   4    -0.102356794949E+03   -0.16102E-05   -0.35100E-04   132   0.653E-02    0.164E-02
DAV:   5    -0.102356786094E+03    0.88542E-05   -0.58508E-05   132   0.273E-02    0.117E-02
DAV:   6    -0.102356785917E+03    0.17720E-06   -0.93936E-06   132   0.883E-03
  29 F= -.10235679E+03 E0= -.10235679E+03  d E =-.459027E-11
       N       E                     dE             d eps       ncg     rms          rms(c)
DAV:   1    -0.102357013113E+03   -0.22702E-03   -0.16691E-01    96   0.119E+00    0.161E-01
DAV:   2    -0.102357926504E+03   -0.91339E-03   -0.96325E-03   132   0.335E-01    0.941E-02
DAV:   3    -0.102357901694E+03    0.24811E-04   -0.29338E-04   132   0.687E-02    0.500E-02
DAV:   4    -0.102357932232E+03   -0.30538E-04   -0.12003E-04   132   0.410E-02    0.124E-02
DAV:   5    -0.102357935903E+03   -0.36714E-05   -0.19141E-05   132   0.166E-02    0.774E-03
DAV:   6    -0.102357937746E+03   -0.18428E-05   -0.36026E-06   132   0.633E-03    0.477E-03
DAV:   7    -0.102357940746E+03   -0.29995E-05   -0.42809E-07   108   0.260E-03    0.137E-03
DAV:   8    -0.102357942688E+03   -0.19421E-05   -0.21713E-07   108   0.191E-03    0.513E-04
DAV:   9    -0.102357944957E+03   -0.22692E-05   -0.15764E-07   108   0.150E-03    0.439E-04
DAV:  10    -0.102357947403E+03   -0.24460E-05   -0.15577E-07   108   0.127E-03    0.340E-04
DAV:  11    -0.102357947934E+03   -0.53098E-06   -0.33360E-08   120   0.691E-04
  30 F= -.10235795E+03 E0= -.10235795E+03  d E =-.921158E-10
       N       E                     dE             d eps       ncg     rms          rms(c)
DAV:   1    -0.102356353656E+03    0.15937E-02   -0.33985E-01    96   0.168E+00    0.260E-01
DAV:   2    -0.102357690857E+03   -0.13372E-02   -0.15247E-02   132   0.427E-01    0.111E-01
DAV:   3    -0.102357648017E+03    0.42840E-04   -0.55654E-04   132   0.871E-02    0.606E-02
DAV:   4    -0.102357662144E+03   -0.14126E-04   -0.12216E-04   132   0.419E-02    0.183E-02
DAV:   5    -0.102357660191E+03    0.19523E-05   -0.22655E-05   132   0.190E-02    0.900E-03
DAV:   6    -0.102357661047E+03   -0.85564E-06   -0.48236E-06   132   0.758E-03
  31 F= -.10235766E+03 E0= -.10235766E+03  d E =-.646475E-11
       N       E                     dE             d eps       ncg     rms          rms(c)
DAV:   1    -0.102356382868E+03    0.12773E-02   -0.19039E-01    96   0.129E+00    0.196E-01
DAV:   2    -0.102357480390E+03   -0.10975E-02   -0.11587E-02   132   0.371E-01    0.939E-02
DAV:   3    -0.102357433878E+03    0.46512E-04   -0.38716E-04   132   0.763E-02    0.499E-02
DAV:   4    -0.102357453449E+03   -0.19571E-04   -0.13868E-04   132   0.419E-02    0.139E-02
DAV:   5    -0.102357454199E+03   -0.74969E-06   -0.21172E-05   132   0.173E-02    0.945E-03
DAV:   6    -0.102357455389E+03   -0.11900E-05   -0.32175E-06   132   0.604E-03    0.581E-03
DAV:   7    -0.102357459066E+03   -0.36777E-05   -0.44199E-07   108   0.280E-03    0.154E-03
DAV:   8    -0.102357461944E+03   -0.28776E-05   -0.43723E-07   108   0.245E-03    0.707E-04
DAV:   9    -0.102357465086E+03   -0.31419E-05   -0.18529E-07   108   0.168E-03    0.390E-04
DAV:  10    -0.102357468579E+03   -0.34937E-05   -0.21235E-07   108   0.134E-03    0.377E-04
DAV:  11    -0.102357469803E+03   -0.12237E-05   -0.64846E-08   108   0.787E-04    0.272E-04
DAV:  12    -0.102357470695E+03   -0.89174E-06   -0.17662E-08   108   0.437E-04
  32 F= -.10235747E+03 E0= -.10235747E+03  d E =-.503430E-11
       N       E                     dE             d eps       ncg     rms          rms(c)
DAV:   1    -0.102355744012E+03    0.17258E-02   -0.33570E-01    96   0.174E+00    0.266E-01
DAV:   2    -0.102357472283E+03   -0.17283E-02   -0.18280E-02   132   0.467E-01    0.135E-01
DAV:   3    -0.102357416172E+03    0.56110E-04   -0.58871E-04   132   0.941E-02    0.718E-02
DAV:   4    -0.102357430636E+03   -0.14464E-04   -0.21008E-04   132   0.585E-02    0.161E-02
DAV:   5    -0.102357424512E+03    0.61246E-05   -0.51964E-05   132   0.273E-02    0.118E-02
DAV:   6    -0.102357424021E+03    0.49013E-06   -0.76031E-06   132   0.910E-03
  33 F= -.10235742E+03 E0= -.10235742E+03  d E =-.452650E-11
       N       E                     dE             d eps       ncg     rms          rms(c)
DAV:   1    -0.102355716063E+03    0.17084E-02   -0.17168E-01    96   0.127E+00    0.181E-01
DAV:   2    -0.102356738428E+03   -0.10224E-02   -0.10416E-02   132   0.350E-01    0.114E-01
DAV:   3    -0.102356717803E+03    0.20625E-04   -0.27547E-04   132   0.662E-02    0.595E-02
DAV:   4    -0.102356722348E+03   -0.45454E-05   -0.13900E-04   120   0.424E-02    0.110E-02
DAV:   5    -0.102356715790E+03    0.65586E-05   -0.22152E-05   144   0.173E-02    0.776E-03
DAV:   6    -0.102356716342E+03   -0.55217E-06   -0.60639E-06   120   0.736E-03
  34 F= -.10235672E+03 E0= -.10235672E+03  d E =-.442245E-11
       N       E                     dE             d eps       ncg     rms          rms(c)
DAV:   1    -0.102354795395E+03    0.19204E-02   -0.33737E-01    96   0.175E+00    0.255E-01
DAV:   2    -0.102356855119E+03   -0.20597E-02   -0.21052E-02   132   0.491E-01    0.158E-01
DAV:   3    -0.102356782123E+03    0.72997E-04   -0.55437E-04   132   0.920E-02    0.806E-02
DAV:   4    -0.102356788178E+03   -0.60559E-05   -0.26383E-04   132   0.586E-02    0.155E-02
DAV:   5    -0.102356772998E+03    0.15180E-04   -0.42718E-05   144   0.244E-02    0.103E-02
DAV:   6    -0.102356768832E+03    0.41669E-05   -0.96208E-06   132   0.991E-03    0.618E-03
DAV:   7    -0.102356774977E+03   -0.61457E-05   -0.22400E-06   132   0.614E-03    0.209E-03
DAV:   8    -0.102356784472E+03   -0.94943E-05   -0.16080E-06   132   0.507E-03    0.148E-03
DAV:   9    -0.102356796093E+03   -0.11621E-04   -0.95266E-07   120   0.293E-03    0.136E-03
DAV:  10    -0.102356807927E+03   -0.11834E-04   -0.47758E-07   108   0.172E-03    0.458E-04
DAV:  11    -0.102356814413E+03   -0.64861E-05   -0.27484E-07   108   0.116E-03    0.323E-04
DAV:  12    -0.102356822044E+03   -0.76310E-05   -0.21951E-07   108   0.102E-03    0.161E-04
DAV:  13    -0.102356824696E+03   -0.26522E-05   -0.59609E-08   120   0.557E-04    0.162E-04
DAV:  14    -0.102356826871E+03   -0.21749E-05   -0.22453E-08   108   0.403E-04    0.906E-05
DAV:  15    -0.102356827913E+03   -0.10424E-05   -0.96302E-09   108   0.270E-04    0.632E-05
DAV:  16    -0.102356828522E+03   -0.60892E-06    0.60554E-10   108   0.183E-04
  35 F= -.10235683E+03 E0= -.10235683E+03  d E =-.515266E-11
       N       E                     dE             d eps       ncg     rms          rms(c)
DAV:   1    -0.102355036762E+03    0.17912E-02   -0.17316E-01    96   0.121E+00    0.186E-01
DAV:   2    -0.102356322017E+03   -0.12853E-02   -0.13187E-02   132   0.386E-01    0.126E-01
DAV:   3    -0.102356250102E+03    0.71914E-04   -0.31384E-04   144   0.727E-02    0.678E-02
DAV:   4    -0.102356250385E+03   -0.28309E-06   -0.21653E-04   132   0.541E-02    0.126E-02
DAV:   5    -0.102356244240E+03    0.61449E-05   -0.49997E-05   132   0.250E-02    0.933E-03
DAV:   6    -0.102356245058E+03   -0.81829E-06   -0.86762E-06   132   0.814E-03
  36 F= -.10235625E+03 E0= -.10235625E+03  d E =-.684924E-11
       N       E                     dE             d eps       ncg     rms          rms(c)
DAV:   1    -0.102353411788E+03    0.28325E-02   -0.34334E-01    96   0.171E+00    0.257E-01
DAV:   2    -0.102356086406E+03   -0.26746E-02   -0.27057E-02   132   0.537E-01    0.182E-01
DAV:   3    -0.102355965848E+03    0.12056E-03   -0.61933E-04   132   0.101E-01    0.100E-01
DAV:   4    -0.102355986573E+03   -0.20724E-04   -0.44135E-04   132   0.762E-02    0.179E-02
DAV:   5    -0.102355977188E+03    0.93842E-05   -0.10253E-04   132   0.350E-02    0.134E-02
DAV:   6    -0.102355978453E+03   -0.12644E-05   -0.18560E-05   132   0.116E-02    0.887E-03
DAV:   7    -0.102355996088E+03   -0.17635E-04   -0.28589E-06   132   0.558E-03    0.342E-03
DAV:   8    -0.102356016180E+03   -0.20093E-04   -0.20196E-06   132   0.396E-03    0.112E-03
DAV:   9    -0.102356036918E+03   -0.20737E-04   -0.25050E-06   120   0.360E-03    0.156E-03
DAV:  10    -0.102356052627E+03   -0.15709E-04   -0.13122E-06   120   0.257E-03    0.785E-04
DAV:  11    -0.102356059706E+03   -0.70796E-05   -0.41149E-07   108   0.143E-03    0.332E-04
DAV:  12    -0.102356065002E+03   -0.52963E-05   -0.30826E-07   108   0.108E-03    0.227E-04
DAV:  13    -0.102356066563E+03   -0.15606E-05   -0.49937E-08   108   0.485E-04    0.233E-04
DAV:  14    -0.102356067947E+03   -0.13843E-05   -0.31717E-08   108   0.425E-04    0.103E-04
DAV:  15    -0.102356068474E+03   -0.52650E-06   -0.59255E-09   108   0.248E-04
  37 F= -.10235607E+03 E0= -.10235607E+03  d E =-.430370E-11
       N       E                     dE             d eps       ncg     rms          rms(c)
DAV:   1    -0.102355059767E+03    0.10082E-02   -0.18095E-01    96   0.135E+00    0.168E-01
DAV:   2    -0.102356610788E+03   -0.15510E-02   -0.16963E-02   132   0.429E-01    0.116E-01
DAV:   3    -0.102356545790E+03    0.64999E-04   -0.32435E-04   144   0.693E-02    0.694E-02
DAV:   4    -0.102356524755E+03    0.21035E-04   -0.17108E-04   132   0.524E-02    0.108E-02
DAV:   5    -0.102356518055E+03    0.66996E-05   -0.48454E-05   144   0.252E-02    0.822E-03
DAV:   6    -0.102356514840E+03    0.32153E-05   -0.58263E-06   132   0.811E-03    0.562E-03
DAV:   7    -0.102356522441E+03   -0.76005E-05   -0.29752E-06   120   0.574E-03    0.205E-03
DAV:   8    -0.102356537948E+03   -0.15508E-04   -0.10718E-06   108   0.367E-03    0.110E-03
DAV:   9    -0.102356551298E+03   -0.13349E-04   -0.96104E-07   108   0.265E-03    0.136E-03
DAV:  10    -0.102356565455E+03   -0.14157E-04   -0.66721E-07    96   0.202E-03    0.294E-04
DAV:  11    -0.102356570215E+03   -0.47604E-05   -0.19190E-07   108   0.101E-03    0.336E-04
DAV:  12    -0.102356575372E+03   -0.51564E-05   -0.11843E-07   108   0.789E-04    0.138E-04
DAV:  13    -0.102356577445E+03   -0.20733E-05   -0.45002E-08   108   0.480E-04    0.116E-04
DAV:  14    -0.102356579274E+03   -0.18288E-05   -0.23848E-08   108   0.362E-04    0.526E-05
DAV:  15    -0.102356579912E+03   -0.63834E-06   -0.24491E-09   108   0.200E-04
  38 F= -.10235658E+03 E0= -.10235658E+03  d E =-.462693E-11
       N       E                     dE             d eps       ncg     rms          rms(c)
DAV:   1    -0.102355267306E+03    0.13120E-02   -0.40480E-01   132   0.186E+00    0.202E-01
DAV:   2    -0.102356776802E+03   -0.15095E-02   -0.18566E-02   132   0.433E-01    0.129E-01
DAV:   3    -0.102356653503E+03    0.12330E-03   -0.29183E-04   132   0.620E-02    0.661E-02
DAV:   4    -0.102356596376E+03    0.57127E-04   -0.14390E-04   120   0.454E-02    0.117E-02
DAV:   5    -0.102356590123E+03    0.62539E-05   -0.29658E-05   132   0.201E-02    0.739E-03
DAV:   6    -0.102356603559E+03   -0.13437E-04   -0.11164E-05   120   0.931E-03    0.402E-03
DAV:   7    -0.102356628599E+03   -0.25040E-04   -0.17116E-06   120   0.400E-03    0.203E-03
DAV:   8    -0.102356665734E+03   -0.37135E-04   -0.40382E-06   108   0.450E-03    0.129E-03
DAV:   9    -0.102356690453E+03   -0.24719E-04   -0.18897E-06   120   0.311E-03    0.745E-04
DAV:  10    -0.102356709389E+03   -0.18936E-04   -0.15435E-06   120   0.251E-03    0.380E-04
DAV:  11    -0.102356717397E+03   -0.80086E-05   -0.27460E-07   108   0.123E-03    0.283E-04
DAV:  12    -0.102356723382E+03   -0.59850E-05   -0.31796E-07   108   0.109E-03    0.134E-04
DAV:  13    -0.102356724855E+03   -0.14727E-05   -0.30149E-08   108   0.442E-04    0.809E-05
DAV:  14    -0.102356726219E+03   -0.13645E-05   -0.17247E-08   108   0.347E-04    0.561E-05
DAV:  15    -0.102356726725E+03   -0.50560E-06   -0.11822E-09   108   0.194E-04
  39 F= -.10235673E+03 E0= -.10235673E+03  d E =-.784007E-11
       N       E                     dE             d eps       ncg     rms          rms(c)
DAV:   1    -0.102356131620E+03    0.59460E-03   -0.20186E-01    96   0.135E+00    0.149E-01
DAV:   2    -0.102356908751E+03   -0.77713E-03   -0.94890E-03   132   0.302E-01    0.786E-02
DAV:   3    -0.102356867276E+03    0.41475E-04   -0.17191E-04   132   0.434E-02    0.417E-02
DAV:   4    -0.102356839844E+03    0.27433E-04   -0.49165E-05   132   0.267E-02    0.848E-03
DAV:   5    -0.102356832686E+03    0.71573E-05   -0.10928E-05   132   0.129E-02    0.489E-03
DAV:   6    -0.102356833750E+03   -0.10640E-05   -0.34773E-06   132   0.623E-03    0.272E-03
DAV:   7    -0.102356841068E+03   -0.73181E-05   -0.90874E-07   108   0.385E-03    0.130E-03
DAV:   8    -0.102356853100E+03   -0.12032E-04   -0.10710E-06   120   0.322E-03    0.927E-04
DAV:   9    -0.102356866647E+03   -0.13547E-04   -0.78854E-07   108   0.238E-03    0.482E-04
DAV:  10    -0.102356874059E+03   -0.74128E-05   -0.34348E-07   108   0.136E-03    0.312E-04
DAV:  11    -0.102356880976E+03   -0.69169E-05   -0.18498E-07    96   0.911E-04    0.159E-04
DAV:  12    -0.102356883801E+03   -0.28243E-05   -0.55417E-08   108   0.515E-04    0.112E-04
DAV:  13    -0.102356886216E+03   -0.24159E-05   -0.39722E-08    96   0.411E-04    0.583E-05
DAV:  14    -0.102356887243E+03   -0.10264E-05   -0.72379E-09   108   0.244E-04    0.349E-05
DAV:  15    -0.102356887902E+03   -0.65963E-06   -0.21507E-09   108   0.186E-04
  40 F= -.10235689E+03 E0= -.10235689E+03  d E =-.467520E-11
       N       E                     dE             d eps       ncg     rms          rms(c)
DAV:   1    -0.102355612613E+03    0.12746E-02   -0.40349E-01    96   0.182E+00    0.212E-01
DAV:   2    -0.102357212731E+03   -0.16001E-02   -0.19678E-02   132   0.429E-01    0.118E-01
DAV:   3    -0.102357115378E+03    0.97353E-04   -0.32492E-04   144   0.585E-02    0.635E-02
DAV:   4    -0.102357039923E+03    0.75455E-04   -0.92811E-05   132   0.364E-02    0.118E-02
DAV:   5    -0.102357034513E+03    0.54099E-05   -0.18683E-05   132   0.171E-02    0.686E-03
DAV:   6    -0.102357051846E+03   -0.17334E-04   -0.84832E-06   132   0.975E-03    0.362E-03
DAV:   7    -0.102357081958E+03   -0.30111E-04   -0.43607E-06   132   0.649E-03    0.212E-03
DAV:   8    -0.102357117616E+03   -0.35658E-04   -0.30740E-06   120   0.441E-03    0.111E-03
DAV:   9    -0.102357144363E+03   -0.26747E-04   -0.26014E-06   120   0.363E-03    0.883E-04
DAV:  10    -0.102357165182E+03   -0.20819E-04   -0.19401E-06   120   0.285E-03    0.342E-04
DAV:  11    -0.102357172154E+03   -0.69719E-05   -0.29935E-07   108   0.126E-03    0.293E-04
DAV:  12    -0.102357176911E+03   -0.47568E-05   -0.20587E-07   108   0.910E-04    0.121E-04
DAV:  13    -0.102357178617E+03   -0.17067E-05   -0.52694E-08   108   0.492E-04    0.714E-05
DAV:  14    -0.102357179628E+03   -0.10107E-05   -0.11263E-08   108   0.310E-04    0.464E-05
DAV:  15    -0.102357179978E+03   -0.35048E-06    0.56060E-10   108   0.169E-04
  41 F= -.10235718E+03 E0= -.10235718E+03  d E =-.617405E-11
       N       E                     dE             d eps       ncg     rms          rms(c)
DAV:   1    -0.102357220031E+03   -0.40403E-04   -0.20265E-01   108   0.127E+00    0.143E-01
DAV:   2    -0.102358012834E+03   -0.79280E-03   -0.94623E-03   132   0.278E-01    0.706E-02
DAV:   3    -0.102357986569E+03    0.26265E-04   -0.18806E-04   144   0.455E-02    0.374E-02
DAV:   4    -0.102357973665E+03    0.12904E-04   -0.43355E-05   132   0.293E-02    0.824E-03
DAV:   5    -0.102357969930E+03    0.37355E-05   -0.15330E-05   132   0.147E-02    0.533E-03
DAV:   6    -0.102357970515E+03   -0.58491E-06   -0.24097E-06   132   0.488E-03
  42 F= -.10235797E+03 E0= -.10235797E+03  d E =-.600857E-10
       N       E                     dE             d eps       ncg     rms          rms(c)
DAV:   1    -0.102356213050E+03    0.17569E-02   -0.40763E-01   120   0.167E+00    0.185E-01
DAV:   2    -0.102357757030E+03   -0.15440E-02   -0.18361E-02   120   0.372E-01    0.940E-02
DAV:   3    -0.102357726983E+03    0.30048E-04   -0.36463E-04   144   0.618E-02    0.513E-02
DAV:   4    -0.102357708350E+03    0.18633E-04   -0.85333E-05   144   0.397E-02    0.103E-02
DAV:   5    -0.102357704777E+03    0.35730E-05   -0.26544E-05   132   0.194E-02    0.726E-03
DAV:   6    -0.102357707276E+03   -0.24995E-05   -0.42220E-06   144   0.691E-03    0.455E-03
DAV:   7    -0.102357715147E+03   -0.78712E-05   -0.88141E-07   108   0.421E-03    0.167E-03
DAV:   8    -0.102357725515E+03   -0.10368E-04   -0.12346E-06   120   0.398E-03    0.129E-03
DAV:   9    -0.102357741480E+03   -0.15965E-04   -0.11401E-06   120   0.333E-03    0.597E-04
DAV:  10    -0.102357748553E+03   -0.70726E-05   -0.36067E-07   108   0.182E-03    0.590E-04
DAV:  11    -0.102357753310E+03   -0.47572E-05   -0.11689E-07   108   0.951E-04    0.299E-04
DAV:  12    -0.102357758750E+03   -0.54401E-05   -0.18069E-07   108   0.882E-04    0.242E-04
DAV:  13    -0.102357760256E+03   -0.15056E-05   -0.23700E-08   108   0.401E-04    0.150E-04
DAV:  14    -0.102357762391E+03   -0.21347E-05   -0.49835E-08   108   0.435E-04    0.511E-05
DAV:  15    -0.102357762925E+03   -0.53474E-06   -0.17694E-09   108   0.202E-04
  43 F= -.10235776E+03 E0= -.10235776E+03  d E =-.137563E-10
       N       E                     dE             d eps       ncg     rms          rms(c)
DAV:   1    -0.102356985493E+03    0.77690E-03   -0.19439E-01   108   0.120E+00    0.129E-01
DAV:   2    -0.102357820430E+03   -0.83494E-03   -0.10250E-02   132   0.284E-01    0.640E-02
DAV:   3    -0.102357800097E+03    0.20333E-04   -0.19971E-04   144   0.448E-02    0.355E-02
DAV:   4    -0.102357777330E+03    0.22766E-04   -0.29856E-05   132   0.245E-02    0.795E-03
DAV:   5    -0.102357772464E+03    0.48669E-05   -0.10731E-05   132   0.131E-02    0.484E-03
DAV:   6    -0.102357775024E+03   -0.25604E-05   -0.25548E-06   132   0.544E-03    0.327E-03
DAV:   7    -0.102357781957E+03   -0.69332E-05   -0.46718E-07   108   0.272E-03    0.134E-03
DAV:   8    -0.102357791780E+03   -0.98230E-05   -0.99496E-07   120   0.314E-03    0.102E-03
DAV:   9    -0.102357804867E+03   -0.13087E-04   -0.99925E-07   108   0.286E-03    0.520E-04
DAV:  10    -0.102357810674E+03   -0.58069E-05   -0.47410E-07   108   0.172E-03    0.630E-04
DAV:  11    -0.102357812459E+03   -0.17854E-05   -0.35691E-08   108   0.699E-04    0.388E-04
DAV:  12    -0.102357816621E+03   -0.41618E-05   -0.15654E-07   108   0.957E-04    0.233E-04
DAV:  13    -0.102357818266E+03   -0.16452E-05   -0.59479E-08   108   0.545E-04    0.301E-04
DAV:  14    -0.102357819190E+03   -0.92377E-06   -0.95928E-09   108   0.370E-04
  44 F= -.10235782E+03 E0= -.10235782E+03  d E =-.116040E-10
       N       E                     dE             d eps       ncg     rms          rms(c)
DAV:   1    -0.102356576680E+03    0.12416E-02   -0.40409E-01    96   0.154E+00    0.177E-01
DAV:   2    -0.102357955720E+03   -0.13790E-02   -0.16645E-02   132   0.343E-01    0.891E-02
DAV:   3    -0.102357899952E+03    0.55767E-04   -0.27617E-04   132   0.582E-02    0.464E-02
DAV:   4    -0.102357869273E+03    0.30679E-04   -0.71554E-05   132   0.376E-02    0.989E-03
DAV:   5    -0.102357865091E+03    0.41822E-05   -0.23560E-05   132   0.187E-02    0.663E-03
DAV:   6    -0.102357868881E+03   -0.37896E-05   -0.43999E-06   132   0.686E-03    0.414E-03
DAV:   7    -0.102357877855E+03   -0.89742E-05   -0.67048E-07   120   0.294E-03    0.196E-03
DAV:   8    -0.102357891584E+03   -0.13729E-04   -0.10902E-06   120   0.314E-03    0.971E-04
DAV:   9    -0.102357907703E+03   -0.16119E-04   -0.13868E-06   120   0.302E-03    0.710E-04
DAV:  10    -0.102357917535E+03   -0.98317E-05   -0.73582E-07   120   0.208E-03    0.527E-04
DAV:  11    -0.102357921490E+03   -0.39552E-05   -0.91939E-08   108   0.960E-04    0.226E-04
DAV:  12    -0.102357924846E+03   -0.33556E-05   -0.11860E-07   108   0.733E-04    0.212E-04
DAV:  13    -0.102357926767E+03   -0.19214E-05   -0.47091E-08   108   0.458E-04    0.101E-04
DAV:  14    -0.102357927783E+03   -0.10159E-05   -0.14493E-08   108   0.287E-04    0.547E-05
DAV:  15    -0.102357928337E+03   -0.55451E-06    0.25086E-10   108   0.169E-04
  45 F= -.10235793E+03 E0= -.10235793E+03  d E =-.819791E-11
       N       E                     dE             d eps       ncg     rms          rms(c)
DAV:   1    -0.102356435518E+03    0.14923E-02   -0.19847E-01    96   0.108E+00    0.137E-01
DAV:   2    -0.102357215223E+03   -0.77970E-03   -0.96904E-03   132   0.241E-01    0.820E-02
DAV:   3    -0.102357156541E+03    0.58681E-04   -0.15529E-04   144   0.424E-02    0.409E-02
DAV:   4    -0.102357128227E+03    0.28315E-04   -0.51560E-05   132   0.272E-02    0.801E-03
DAV:   5    -0.102357120562E+03    0.76642E-05   -0.11471E-05   132   0.125E-02    0.454E-03
DAV:   6    -0.102357122612E+03   -0.20498E-05   -0.31928E-06   132   0.488E-03    0.250E-03
DAV:   7    -0.102357131050E+03   -0.84380E-05   -0.68753E-07   108   0.245E-03    0.120E-03
DAV:   8    -0.102357143835E+03   -0.12785E-04   -0.76179E-07   120   0.205E-03    0.758E-04
DAV:   9    -0.102357156152E+03   -0.12317E-04   -0.63510E-07   120   0.166E-03    0.482E-04
DAV:  10    -0.102357166390E+03   -0.10238E-04   -0.52450E-07   120   0.137E-03    0.262E-04
DAV:  11    -0.102357169941E+03   -0.35507E-05   -0.48291E-08   108   0.609E-04    0.159E-04
DAV:  12    -0.102357173982E+03   -0.40410E-05   -0.11232E-07   108   0.664E-04    0.813E-05
DAV:  13    -0.102357175040E+03   -0.10583E-05   -0.94158E-09   108   0.290E-04    0.515E-05
DAV:  14    -0.102357175988E+03   -0.94759E-06   -0.37318E-09   108   0.221E-04
  46 F= -.10235718E+03 E0= -.10235718E+03  d E =-.982575E-11
       N       E                     dE             d eps       ncg     rms          rms(c)
DAV:   1    -0.102355991266E+03    0.11838E-02   -0.40012E-01    96   0.153E+00    0.190E-01
DAV:   2    -0.102357505716E+03   -0.15145E-02   -0.18596E-02   132   0.340E-01    0.108E-01
DAV:   3    -0.102357413753E+03    0.91963E-04   -0.28648E-04   132   0.579E-02    0.567E-02
DAV:   4    -0.102357363438E+03    0.50314E-04   -0.10080E-04   132   0.393E-02    0.107E-02
DAV:   5    -0.102357357126E+03    0.63124E-05   -0.25416E-05   132   0.186E-02    0.659E-03
DAV:   6    -0.102357365579E+03   -0.84534E-05   -0.60796E-06   132   0.681E-03    0.387E-03
DAV:   7    -0.102357383670E+03   -0.18091E-04   -0.15008E-06   132   0.344E-03    0.187E-03
DAV:   8    -0.102357406655E+03   -0.22985E-04   -0.19044E-06   120   0.304E-03    0.102E-03
DAV:   9    -0.102357427159E+03   -0.20504E-04   -0.17807E-06   132   0.266E-03    0.768E-04
DAV:  10    -0.102357443306E+03   -0.16147E-04   -0.14543E-06   120   0.219E-03    0.345E-04
DAV:  11    -0.102357447692E+03   -0.43862E-05   -0.11867E-07   108   0.875E-04    0.260E-04
DAV:  12    -0.102357453395E+03   -0.57027E-05   -0.27462E-07   108   0.101E-03    0.160E-04
DAV:  13    -0.102357454621E+03   -0.12263E-05   -0.38820E-08   120   0.430E-04    0.967E-05
DAV:  14    -0.102357455735E+03   -0.11140E-05   -0.10851E-08   108   0.300E-04    0.450E-05
DAV:  15    -0.102357456212E+03   -0.47673E-06   -0.11755E-09   108   0.187E-04
  47 F= -.10235746E+03 E0= -.10235746E+03  d E =-.582704E-11
       N       E                     dE             d eps       ncg     rms          rms(c)
DAV:   1    -0.102357119504E+03    0.33623E-03   -0.19858E-01    96   0.108E+00    0.136E-01
DAV:   2    -0.102357910790E+03   -0.79129E-03   -0.97587E-03   132   0.246E-01    0.800E-02
DAV:   3    -0.102357855449E+03    0.55340E-04   -0.15029E-04   132   0.421E-02    0.409E-02
DAV:   4    -0.102357827520E+03    0.27930E-04   -0.55372E-05   132   0.281E-02    0.772E-03
DAV:   5    -0.102357820746E+03    0.67736E-05   -0.12942E-05   132   0.131E-02    0.470E-03
DAV:   6    -0.102357822135E+03   -0.13890E-05   -0.32740E-06   132   0.496E-03    0.271E-03
DAV:   7    -0.102357829843E+03   -0.77085E-05   -0.59952E-07   108   0.248E-03    0.129E-03
DAV:   8    -0.102357842696E+03   -0.12853E-04   -0.94335E-07   120   0.227E-03    0.784E-04
DAV:   9    -0.102357854372E+03   -0.11676E-04   -0.59372E-07   120   0.168E-03    0.565E-04
DAV:  10    -0.102357864203E+03   -0.98307E-05   -0.42481E-07   108   0.131E-03    0.236E-04
DAV:  11    -0.102357868065E+03   -0.38616E-05   -0.10000E-07   108   0.682E-04    0.172E-04
DAV:  12    -0.102357872361E+03   -0.42961E-05   -0.12016E-07   108   0.680E-04    0.921E-05
DAV:  13    -0.102357873653E+03   -0.12924E-05   -0.19353E-08   108   0.333E-04    0.583E-05
DAV:  14    -0.102357874786E+03   -0.11328E-05   -0.99265E-09   108   0.253E-04    0.296E-05
DAV:  15    -0.102357875187E+03   -0.40152E-06    0.24310E-09   108   0.140E-04
  48 F= -.10235788E+03 E0= -.10235788E+03  d E =-.121371E-10
       N       E                     dE             d eps       ncg     rms          rms(c)
DAV:   1    -0.102356624853E+03    0.12499E-02   -0.40488E-01    96   0.153E+00    0.175E-01
DAV:   2    -0.102357956893E+03   -0.13320E-02   -0.16144E-02   120   0.338E-01    0.878E-02
DAV:   3    -0.102357908300E+03    0.48594E-04   -0.30985E-04   156   0.605E-02    0.457E-02
DAV:   4    -0.102357879019E+03    0.29281E-04   -0.62823E-05   132   0.366E-02    0.961E-03
DAV:   5    -0.102357874709E+03    0.43101E-05   -0.22862E-05   132   0.183E-02    0.658E-03
DAV:   6    -0.102357878023E+03   -0.33139E-05   -0.40178E-06   132   0.647E-03    0.425E-03
DAV:   7    -0.102357886532E+03   -0.85096E-05   -0.58429E-07   108   0.282E-03    0.197E-03
DAV:   8    -0.102357899505E+03   -0.12973E-04   -0.11650E-06   120   0.325E-03    0.108E-03
DAV:   9    -0.102357915610E+03   -0.16105E-04   -0.13319E-06   120   0.308E-03    0.635E-04
DAV:  10    -0.102357924596E+03   -0.89859E-05   -0.64082E-07   120   0.201E-03    0.616E-04
DAV:  11    -0.102357928149E+03   -0.35530E-05   -0.75527E-08   108   0.901E-04    0.252E-04
DAV:  12    -0.102357931932E+03   -0.37829E-05   -0.12880E-07   108   0.779E-04    0.226E-04
DAV:  13    -0.102357934031E+03   -0.20993E-05   -0.57074E-08   108   0.491E-04    0.125E-04
DAV:  14    -0.102357935190E+03   -0.11591E-05   -0.18510E-08   108   0.305E-04    0.559E-05
DAV:  15    -0.102357935737E+03   -0.54643E-06    0.23148E-10   108   0.171E-04
  49 F= -.10235794E+03 E0= -.10235794E+03  d E =-.785038E-11
       N       E                     dE             d eps       ncg     rms          rms(c)
DAV:   1    -0.102355613574E+03    0.23216E-02   -0.19543E-01    96   0.129E+00    0.144E-01
DAV:   2    -0.102356674146E+03   -0.10606E-02   -0.13015E-02   120   0.325E-01    0.770E-02
DAV:   3    -0.102356644460E+03    0.29686E-04   -0.27019E-04   144   0.519E-02    0.427E-02
DAV:   4    -0.102356618712E+03    0.25748E-04   -0.47239E-05   132   0.286E-02    0.908E-03
DAV:   5    -0.102356610707E+03    0.80054E-05   -0.12501E-05   132   0.139E-02    0.554E-03
DAV:   6    -0.102356611204E+03   -0.49712E-06   -0.27866E-06   132   0.612E-03
  50 F= -.10235661E+03 E0= -.10235661E+03  d E =-.666341E-11
       N       E                     dE             d eps       ncg     rms          rms(c)
DAV:   1    -0.102355521182E+03    0.10895E-02   -0.40261E-01    96   0.185E+00    0.202E-01
DAV:   2    -0.102357155210E+03   -0.16340E-02   -0.19591E-02   108   0.433E-01    0.121E-01
DAV:   3    -0.102357082540E+03    0.72671E-04   -0.30024E-04   132   0.581E-02    0.651E-02
DAV:   4    -0.102357004625E+03    0.77915E-04   -0.11229E-04   132   0.368E-02    0.111E-02
DAV:   5    -0.102356992635E+03    0.11990E-04   -0.15709E-05   132   0.159E-02    0.678E-03
DAV:   6    -0.102357003575E+03   -0.10940E-04   -0.96141E-06   132   0.106E-02    0.330E-03
DAV:   7    -0.102357026872E+03   -0.23296E-04   -0.43391E-06   132   0.660E-03    0.217E-03
DAV:   8    -0.102357053400E+03   -0.26528E-04   -0.18690E-06   108   0.347E-03    0.110E-03
DAV:   9    -0.102357079789E+03   -0.26389E-04   -0.25923E-06   120   0.348E-03    0.795E-04
DAV:  10    -0.102357098819E+03   -0.19030E-04   -0.17385E-06   120   0.267E-03    0.337E-04
DAV:  11    -0.102357105899E+03   -0.70804E-05   -0.33985E-07   108   0.132E-03    0.268E-04
DAV:  12    -0.102357109775E+03   -0.38756E-05   -0.15264E-07   108   0.800E-04    0.155E-04
DAV:  13    -0.102357112014E+03   -0.22390E-05   -0.71072E-08   108   0.557E-04    0.710E-05
DAV:  14    -0.102357112869E+03   -0.85506E-06   -0.84102E-09   108   0.290E-04
  51 F= -.10235711E+03 E0= -.10235711E+03  d E =-.470886E-11
       N       E                     dE             d eps       ncg     rms          rms(c)
DAV:   1    -0.102357400444E+03   -0.28843E-03   -0.20174E-01    96   0.131E+00    0.147E-01
DAV:   2    -0.102358212328E+03   -0.81188E-03   -0.97993E-03   132   0.298E-01    0.777E-02
DAV:   3    -0.102358175978E+03    0.36350E-04   -0.19070E-04   144   0.452E-02    0.411E-02
DAV:   4    -0.102358153743E+03    0.22235E-04   -0.46884E-05   132   0.281E-02    0.851E-03
DAV:   5    -0.102358147700E+03    0.60427E-05   -0.13020E-05   132   0.138E-02    0.519E-03
DAV:   6    -0.102358148620E+03   -0.91962E-06   -0.30249E-06   132   0.559E-03
  52 F= -.10235815E+03 E0= -.10235815E+03  d E =-.601542E-10
       N       E                     dE             d eps       ncg     rms          rms(c)
DAV:   1    -0.102356491032E+03    0.16567E-02   -0.40944E-01   120   0.167E+00    0.194E-01
DAV:   2    -0.102357985438E+03   -0.14944E-02   -0.17664E-02   132   0.354E-01    0.863E-02
DAV:   3    -0.102357970544E+03    0.14894E-04   -0.36250E-04   144   0.631E-02    0.461E-02
DAV:   4    -0.102357969027E+03    0.15166E-05   -0.67812E-05   132   0.401E-02    0.103E-02
DAV:   5    -0.102357970377E+03   -0.13497E-05   -0.30927E-05   132   0.208E-02    0.749E-03
DAV:   6    -0.102357972011E+03   -0.16336E-05   -0.30954E-06   144   0.571E-03    0.556E-03
DAV:   7    -0.102357976424E+03   -0.44136E-05   -0.58825E-07   108   0.292E-03    0.215E-03
DAV:   8    -0.102357981369E+03   -0.49445E-05   -0.86411E-07   108   0.336E-03    0.142E-03
DAV:   9    -0.102357990337E+03   -0.89688E-05   -0.72743E-07   108   0.348E-03    0.973E-04
DAV:  10    -0.102357994670E+03   -0.43330E-05   -0.40703E-07   108   0.206E-03    0.116E-03
DAV:  11    -0.102357995914E+03   -0.12431E-05   -0.48273E-08   120   0.901E-04    0.816E-04
DAV:  12    -0.102357998946E+03   -0.30321E-05   -0.76111E-08   108   0.812E-04    0.179E-04
DAV:  13    -0.102358000855E+03   -0.19089E-05   -0.50507E-08   108   0.569E-04    0.242E-04
DAV:  14    -0.102358002310E+03   -0.14555E-05   -0.20225E-08   108   0.386E-04    0.690E-05
DAV:  15    -0.102358003144E+03   -0.83358E-06   -0.13784E-08   108   0.280E-04
  53 F= -.10235800E+03 E0= -.10235800E+03  d E =-.133647E-10
       N       E                     dE             d eps       ncg     rms          rms(c)
DAV:   1    -0.102355650088E+03    0.23522E-02   -0.20313E-01   108   0.122E+00    0.143E-01
DAV:   2    -0.102356436055E+03   -0.78597E-03   -0.94382E-03   132   0.297E-01    0.727E-02
DAV:   3    -0.102356407139E+03    0.28916E-04   -0.19506E-04   144   0.473E-02    0.382E-02
DAV:   4    -0.102356395029E+03    0.12110E-04   -0.46048E-05   132   0.296E-02    0.840E-03
DAV:   5    -0.102356390931E+03    0.40981E-05   -0.14605E-05   132   0.144E-02    0.525E-03
DAV:   6    -0.102356391445E+03   -0.51355E-06   -0.26617E-06   132   0.522E-03
  54 F= -.10235639E+03 E0= -.10235639E+03  d E =-.530397E-11
       N       E                     dE             d eps       ncg     rms          rms(c)
DAV:   1    -0.102355290235E+03    0.11007E-02   -0.40464E-01   120   0.185E+00    0.200E-01
DAV:   2    -0.102356799189E+03   -0.15090E-02   -0.18219E-02   132   0.428E-01    0.131E-01
DAV:   3    -0.102356687169E+03    0.11202E-03   -0.27437E-04   132   0.604E-02    0.685E-02
DAV:   4    -0.102356632555E+03    0.54613E-04   -0.15585E-04   132   0.459E-02    0.118E-02
DAV:   5    -0.102356621429E+03    0.11127E-04   -0.28408E-05   132   0.200E-02    0.735E-03
DAV:   6    -0.102356630592E+03   -0.91631E-05   -0.11771E-05   132   0.947E-03    0.398E-03
DAV:   7    -0.102356651703E+03   -0.21111E-04   -0.16962E-06   120   0.420E-03    0.202E-03
DAV:   8    -0.102356683008E+03   -0.31306E-04   -0.35749E-06   108   0.437E-03    0.120E-03
DAV:   9    -0.102356702582E+03   -0.19574E-04   -0.14985E-06   120   0.283E-03    0.794E-04
DAV:  10    -0.102356720611E+03   -0.18028E-04   -0.16208E-06   108   0.253E-03    0.348E-04
DAV:  11    -0.102356727293E+03   -0.66828E-05   -0.26753E-07   108   0.118E-03    0.292E-04
DAV:  12    -0.102356732825E+03   -0.55312E-05   -0.32436E-07   108   0.111E-03    0.121E-04
DAV:  13    -0.102356734026E+03   -0.12011E-05   -0.35369E-08   108   0.456E-04    0.824E-05
DAV:  14    -0.102356735196E+03   -0.11706E-05   -0.16055E-08   108   0.341E-04    0.484E-05
DAV:  15    -0.102356735567E+03   -0.37065E-06   -0.55618E-10   108   0.185E-04
  55 F= -.10235674E+03 E0= -.10235674E+03  d E =-.678291E-11
       N       E                     dE             d eps       ncg     rms          rms(c)
DAV:   1    -0.102356687667E+03    0.47529E-04   -0.19882E-01    96   0.133E+00    0.147E-01
DAV:   2    -0.102357872509E+03   -0.11848E-02   -0.14369E-02   132   0.363E-01    0.850E-02
DAV:   3    -0.102357827076E+03    0.45433E-04   -0.27429E-04   144   0.545E-02    0.495E-02
DAV:   4    -0.102357791695E+03    0.35381E-04   -0.67716E-05   132   0.352E-02    0.973E-03
DAV:   5    -0.102357781574E+03    0.10120E-04   -0.23661E-05   132   0.181E-02    0.674E-03
DAV:   6    -0.102357782322E+03   -0.74755E-06   -0.36737E-06   132   0.650E-03
  56 F= -.10235778E+03 E0= -.10235778E+03  d E =-.557347E-10
       N       E                     dE             d eps       ncg     rms          rms(c)
DAV:   1    -0.102355919084E+03    0.18625E-02   -0.40580E-01   120   0.172E+00    0.190E-01
DAV:   2    -0.102357588680E+03   -0.16696E-02   -0.19567E-02   120   0.394E-01    0.101E-01
DAV:   3    -0.102357565141E+03    0.23540E-04   -0.38888E-04   156   0.638E-02    0.551E-02
DAV:   4    -0.102357556430E+03    0.87107E-05   -0.87034E-05   132   0.405E-02    0.105E-02
DAV:   5    -0.102357552766E+03    0.36640E-05   -0.28640E-05   132   0.203E-02    0.737E-03
DAV:   6    -0.102357554268E+03   -0.15017E-05   -0.46506E-06   144   0.689E-03    0.487E-03
DAV:   7    -0.102357560156E+03   -0.58881E-05   -0.87225E-07   108   0.384E-03    0.187E-03
DAV:   8    -0.102357567598E+03   -0.74424E-05   -0.12676E-06   120   0.385E-03    0.129E-03
DAV:   9    -0.102357579435E+03   -0.11837E-04   -0.76313E-07   108   0.298E-03    0.599E-04
DAV:  10    -0.102357585519E+03   -0.60845E-05   -0.42918E-07   108   0.184E-03    0.634E-04
DAV:  11    -0.102357589140E+03   -0.36205E-05   -0.77547E-08   108   0.919E-04    0.360E-04
DAV:  12    -0.102357593908E+03   -0.47682E-05   -0.16786E-07   108   0.875E-04    0.234E-04
DAV:  13    -0.102357595224E+03   -0.13159E-05   -0.19993E-08   108   0.382E-04    0.181E-04
DAV:  14    -0.102357597277E+03   -0.20530E-05   -0.45621E-08    96   0.449E-04    0.521E-05
DAV:  15    -0.102357597805E+03   -0.52842E-06   -0.32563E-09   108   0.219E-04
  57 F= -.10235760E+03 E0= -.10235760E+03  d E =-.128648E-10
       N       E                     dE             d eps       ncg     rms          rms(c)
DAV:   1    -0.102356311541E+03    0.12857E-02   -0.20461E-01   120   0.121E+00    0.136E-01
DAV:   2    -0.102357030000E+03   -0.71846E-03   -0.85485E-03   120   0.256E-01    0.614E-02
DAV:   3    -0.102357016033E+03    0.13967E-04   -0.18510E-04   144   0.457E-02    0.325E-02
DAV:   4    -0.102357009840E+03    0.61936E-05   -0.34542E-05   120   0.283E-02    0.781E-03
DAV:   5    -0.102357008537E+03    0.13033E-05   -0.15168E-05   132   0.148E-02    0.536E-03
DAV:   6    -0.102357008888E+03   -0.35185E-06   -0.14987E-06   120   0.405E-03
  58 F= -.10235701E+03 E0= -.10235701E+03  d E =-.884999E-10
       N       E                     dE             d eps       ncg     rms          rms(c)
DAV:   1    -0.102355541287E+03    0.14672E-02   -0.40387E-01    96   0.184E+00    0.212E-01
DAV:   2    -0.102357219369E+03   -0.16781E-02   -0.20139E-02   132   0.430E-01    0.117E-01
DAV:   3    -0.102357135788E+03    0.83581E-04   -0.35969E-04   144   0.629E-02    0.630E-02
DAV:   4    -0.102357086230E+03    0.49558E-04   -0.11025E-04   132   0.418E-02    0.117E-02
DAV:   5    -0.102357079248E+03    0.69820E-05   -0.26376E-05   132   0.193E-02    0.739E-03
DAV:   6    -0.102357087812E+03   -0.85641E-05   -0.77550E-06   132   0.843E-03    0.424E-03
DAV:   7    -0.102357107211E+03   -0.19399E-04   -0.22066E-06   132   0.471E-03    0.203E-03
DAV:   8    -0.102357134587E+03   -0.27376E-04   -0.29257E-06   120   0.429E-03    0.118E-03
DAV:   9    -0.102357151695E+03   -0.17108E-04   -0.14658E-06   120   0.290E-03    0.101E-03
DAV:  10    -0.102357168134E+03   -0.16439E-04   -0.14147E-06   108   0.250E-03    0.333E-04
DAV:  11    -0.102357173884E+03   -0.57495E-05   -0.24325E-07   108   0.116E-03    0.335E-04
DAV:  12    -0.102357179633E+03   -0.57487E-05   -0.32668E-07   108   0.114E-03    0.133E-04
DAV:  13    -0.102357180898E+03   -0.12652E-05   -0.46674E-08   108   0.477E-04    0.102E-04
DAV:  14    -0.102357181998E+03   -0.11007E-05   -0.11490E-08   108   0.311E-04    0.423E-05
DAV:  15    -0.102357182594E+03   -0.59570E-06   -0.75693E-09   108   0.234E-04
  59 F= -.10235718E+03 E0= -.10235718E+03  d E =-.818752E-11
       N       E                     dE             d eps       ncg     rms          rms(c)
DAV:   1    -0.102355765105E+03    0.14169E-02   -0.20127E-01    96   0.131E+00    0.152E-01
DAV:   2    -0.102356538083E+03   -0.77298E-03   -0.95206E-03   132   0.311E-01    0.788E-02
DAV:   3    -0.102356494031E+03    0.44052E-04   -0.16255E-04   132   0.428E-02    0.418E-02
DAV:   4    -0.102356461628E+03    0.32403E-04   -0.45576E-05   144   0.248E-02    0.878E-03
DAV:   5    -0.102356453936E+03    0.76912E-05   -0.81740E-06   132   0.116E-02    0.448E-03
DAV:   6    -0.102356455803E+03   -0.18670E-05   -0.31762E-06   120   0.685E-03    0.225E-03
DAV:   7    -0.102356465101E+03   -0.92979E-05   -0.15180E-06   120   0.453E-03    0.137E-03
DAV:   8    -0.102356479310E+03   -0.14209E-04   -0.82315E-07   108   0.291E-03    0.726E-04
DAV:   9    -0.102356490907E+03   -0.11597E-04   -0.73681E-07   108   0.216E-03    0.563E-04
DAV:  10    -0.102356501504E+03   -0.10597E-04   -0.43714E-07   108   0.150E-03    0.256E-04
DAV:  11    -0.102356507755E+03   -0.62512E-05   -0.18781E-07   108   0.901E-04    0.196E-04
DAV:  12    -0.102356511240E+03   -0.34847E-05   -0.48133E-08   108   0.509E-04    0.873E-05
DAV:  13    -0.102356513765E+03   -0.25250E-05   -0.52378E-08   108   0.480E-04    0.530E-05
DAV:  14    -0.102356514738E+03   -0.97316E-06   -0.65658E-09   108   0.256E-04
  60 F= -.10235651E+03 E0= -.10235651E+03  d E =-.597092E-11
       N       E                     dE             d eps       ncg     rms          rms(c)
DAV:   1    -0.102355381059E+03    0.11327E-02   -0.40253E-01    96   0.185E+00    0.203E-01
DAV:   2    -0.102357010392E+03   -0.16293E-02   -0.20090E-02   132   0.440E-01    0.127E-01
DAV:   3    -0.102356892491E+03    0.11790E-03   -0.29751E-04   132   0.596E-02    0.686E-02
DAV:   4    -0.102356817578E+03    0.74913E-04   -0.12903E-04   132   0.412E-02    0.118E-02
DAV:   5    -0.102356813590E+03    0.39873E-05   -0.21188E-05   132   0.180E-02    0.740E-03
DAV:   6    -0.102356833850E+03   -0.20260E-04   -0.12008E-05   120   0.106E-02    0.384E-03
DAV:   7    -0.102356865601E+03   -0.31751E-04   -0.43884E-06   120   0.653E-03    0.229E-03
DAV:   8    -0.102356907462E+03   -0.41861E-04   -0.40918E-06   108   0.479E-03    0.115E-03
DAV:   9    -0.102356935844E+03   -0.28382E-04   -0.27955E-06   120   0.368E-03    0.902E-04
DAV:  10    -0.102356957886E+03   -0.22042E-04   -0.20928E-06   120   0.289E-03    0.440E-04
DAV:  11    -0.102356965223E+03   -0.73372E-05   -0.34170E-07   108   0.133E-03    0.265E-04
DAV:  12    -0.102356970140E+03   -0.49166E-05   -0.24423E-07   108   0.100E-03    0.185E-04
DAV:  13    -0.102356972016E+03   -0.18758E-05   -0.49469E-08   108   0.546E-04    0.714E-05
DAV:  14    -0.102356972950E+03   -0.93416E-06   -0.94980E-09   108   0.315E-04
  61 F= -.10235697E+03 E0= -.10235697E+03  d E =-.510151E-11
       N       E                     dE             d eps       ncg     rms          rms(c)
DAV:   1    -0.102359738925E+03   -0.27669E-02   -0.23697E-01    96   0.175E+00    0.154E-01
DAV:   2    -0.102360181129E+03   -0.44220E-03   -0.71151E-03   132   0.280E-01    0.888E-02
DAV:   3    -0.102360100986E+03    0.80142E-04   -0.20231E-04   132   0.513E-02    0.412E-02
DAV:   4    -0.102360082723E+03    0.18263E-04   -0.84341E-05   132   0.321E-02    0.903E-03
DAV:   5    -0.102360078698E+03    0.40251E-05   -0.11206E-05   132   0.128E-02    0.673E-03
DAV:   6    -0.102360079710E+03   -0.10119E-05   -0.33771E-06   132   0.622E-03    0.281E-03
DAV:   7    -0.102360084486E+03   -0.47761E-05   -0.73915E-07   108   0.357E-03    0.121E-03
DAV:   8    -0.102360091913E+03   -0.74266E-05   -0.52821E-07   108   0.242E-03    0.984E-04
DAV:   9    -0.102360102305E+03   -0.10392E-04   -0.63843E-07   108   0.222E-03    0.364E-04
DAV:  10    -0.102360108960E+03   -0.66545E-05   -0.38986E-07   108   0.149E-03    0.427E-04
DAV:  11    -0.102360112220E+03   -0.32606E-05   -0.70046E-08   108   0.769E-04    0.200E-04
DAV:  12    -0.102360114953E+03   -0.27329E-05   -0.58109E-08   108   0.568E-04    0.107E-04
DAV:  13    -0.102360116690E+03   -0.17365E-05   -0.31174E-08   108   0.378E-04    0.819E-05
DAV:  14    -0.102360117570E+03   -0.88027E-06   -0.49199E-09   108   0.220E-04
  62 F= -.10236012E+03 E0= -.10236012E+03  d E =-.524340E-11
       N       E                     dE             d eps       ncg     rms          rms(c)
DAV:   1    -0.102360321979E+03   -0.20529E-03   -0.54874E-01    96   0.254E+00    0.227E-01
DAV:   2    -0.102359979087E+03    0.34289E-03   -0.34002E-03   132   0.195E-01    0.121E-01
DAV:   3    -0.102359766862E+03    0.21223E-03   -0.51855E-04   132   0.696E-02    0.350E-02
DAV:   4    -0.102359770332E+03   -0.34698E-05   -0.11127E-04   120   0.332E-02    0.143E-02
DAV:   5    -0.102359771560E+03   -0.12277E-05   -0.54705E-06   132   0.935E-03    0.862E-03
DAV:   6    -0.102359775172E+03   -0.36120E-05   -0.33098E-06   120   0.654E-03    0.148E-03
DAV:   7    -0.102359777263E+03   -0.20915E-05   -0.69513E-07   108   0.323E-03    0.113E-03
DAV:   8    -0.102359780005E+03   -0.27418E-05   -0.13257E-07   108   0.146E-03    0.438E-04
DAV:   9    -0.102359783010E+03   -0.30048E-05   -0.14133E-07   108   0.126E-03    0.353E-04
DAV:  10    -0.102359785313E+03   -0.23029E-05   -0.10051E-07   108   0.937E-04    0.224E-04
DAV:  11    -0.102359786946E+03   -0.16336E-05   -0.71693E-08   108   0.677E-04    0.187E-04
DAV:  12    -0.102359787605E+03   -0.65850E-06   -0.11911E-08   108   0.389E-04
  63 F= -.10235979E+03 E0= -.10235979E+03  d E =-.495058E-11
       N       E                     dE             d eps       ncg     rms          rms(c)
DAV:   1    -0.102359473509E+03    0.31344E-03   -0.29075E-01    96   0.182E+00    0.210E-01
DAV:   2    -0.102359223778E+03    0.24973E-03   -0.24900E-03   132   0.165E-01    0.103E-01
DAV:   3    -0.102359072361E+03    0.15142E-03   -0.40099E-04   132   0.598E-02    0.361E-02
DAV:   4    -0.102359067959E+03    0.44023E-05   -0.11535E-04   132   0.314E-02    0.148E-02
DAV:   5    -0.102359066141E+03    0.18179E-05   -0.51938E-06   132   0.953E-03    0.538E-03
DAV:   6    -0.102359067169E+03   -0.10281E-05   -0.31158E-06   120   0.596E-03    0.185E-03
DAV:   7    -0.102359068799E+03   -0.16299E-05   -0.61355E-07   108   0.284E-03    0.857E-04
DAV:   8    -0.102359071293E+03   -0.24938E-05   -0.16437E-07    96   0.148E-03    0.435E-04
DAV:   9    -0.102359073234E+03   -0.19415E-05   -0.11566E-07   108   0.111E-03    0.392E-04
DAV:  10    -0.102359076416E+03   -0.31819E-05   -0.17993E-07    96   0.102E-03    0.156E-04
DAV:  11    -0.102359077167E+03   -0.75071E-06   -0.28165E-08   108   0.517E-04
  64 F= -.10235908E+03 E0= -.10235908E+03  d E =-.560083E-11
       N       E                     dE             d eps       ncg     rms          rms(c)
DAV:   1    -0.102359251119E+03   -0.17470E-03   -0.56819E-01    96   0.241E+00    0.275E-01
DAV:   2    -0.102358773089E+03    0.47803E-03   -0.42839E-03   120   0.210E-01    0.137E-01
DAV:   3    -0.102358488374E+03    0.28472E-03   -0.70897E-04   132   0.735E-02    0.470E-02
DAV:   4    -0.102358476697E+03    0.11677E-04   -0.16475E-04   144   0.374E-02    0.188E-02
DAV:   5    -0.102358478974E+03   -0.22774E-05   -0.86174E-06   132   0.125E-02    0.711E-03
DAV:   6    -0.102358485445E+03   -0.64704E-05   -0.54526E-06   132   0.754E-03    0.245E-03
DAV:   7    -0.102358490432E+03   -0.49871E-05   -0.95484E-07   132   0.339E-03    0.120E-03
DAV:   8    -0.102358497674E+03   -0.72417E-05   -0.38284E-07   108   0.190E-03    0.505E-04
DAV:   9    -0.102358502615E+03   -0.49415E-05   -0.30637E-07   108   0.148E-03    0.511E-04
DAV:  10    -0.102358509731E+03   -0.71164E-05   -0.61457E-07   120   0.168E-03    0.263E-04
DAV:  11    -0.102358511050E+03   -0.13184E-05   -0.53114E-08   120   0.740E-04    0.181E-04
DAV:  12    -0.102358512209E+03   -0.11588E-05   -0.23425E-08   108   0.446E-04    0.110E-04
DAV:  13    -0.102358513421E+03   -0.12124E-05   -0.31117E-08   108   0.406E-04    0.958E-05
DAV:  14    -0.102358514006E+03   -0.58515E-06   -0.10526E-08   108   0.264E-04
  65 F= -.10235851E+03 E0= -.10235851E+03  d E =-.482636E-11
       N       E                     dE             d eps       ncg     rms          rms(c)
DAV:   1    -0.102360469712E+03   -0.19563E-02   -0.28894E-01    96   0.169E+00    0.204E-01
DAV:   2    -0.102360201593E+03    0.26812E-03   -0.23974E-03   132   0.160E-01    0.101E-01
DAV:   3    -0.102360050172E+03    0.15142E-03   -0.41316E-04   132   0.605E-02    0.346E-02
DAV:   4    -0.102360048684E+03    0.14880E-05   -0.11361E-04   132   0.315E-02    0.146E-02
DAV:   5    -0.102360047755E+03    0.92924E-06   -0.46691E-06   132   0.878E-03
  66 F= -.10236005E+03 E0= -.10236005E+03  d E =-.527355E-11
       N       E                     dE             d eps       ncg     rms          rms(c)
DAV:   1    -0.102360539949E+03   -0.49127E-03   -0.55501E-01    96   0.237E+00    0.221E-01
DAV:   2    -0.102360173544E+03    0.36641E-03   -0.36261E-03   132   0.186E-01    0.121E-01
DAV:   3    -0.102359953571E+03    0.21997E-03   -0.63315E-04   132   0.743E-02    0.319E-02
DAV:   4    -0.102359961006E+03   -0.74354E-05   -0.13041E-04   132   0.350E-02    0.153E-02
DAV:   5    -0.102359960388E+03    0.61885E-06   -0.45067E-06   132   0.794E-03
  67 F= -.10235996E+03 E0= -.10235996E+03  d E =-.572985E-11
       N       E                     dE             d eps       ncg     rms          rms(c)
DAV:   1    -0.102360661627E+03   -0.70062E-03   -0.27377E-01    96   0.170E+00    0.148E-01
DAV:   2    -0.102360594775E+03    0.66852E-04   -0.18556E-03   132   0.141E-01    0.849E-02
DAV:   3    -0.102360511666E+03    0.83109E-04   -0.18322E-04   132   0.429E-02    0.186E-02
DAV:   4    -0.102360513338E+03   -0.16724E-05   -0.35179E-05   132   0.187E-02    0.681E-03
DAV:   5    -0.102360513424E+03   -0.86301E-07   -0.95317E-07   108   0.411E-03
  68 F= -.10236051E+03 E0= -.10236051E+03  d E =-.533320E-11
       N       E                     dE             d eps       ncg     rms          rms(c)
[...]
DAV:  11    -0.102358525555E+03   -0.10849E-05   -0.46334E-08   108   0.685E-04    0.232E-04
DAV:  12    -0.102358526174E+03   -0.61912E-06   -0.82482E-09   108   0.326E-04
 129 F= -.10235853E+03 E0= -.10235853E+03  d E =-.462284E-11
       N       E                     dE             d eps       ncg     rms          rms(c)
DAV:   1    -0.102360751084E+03   -0.22255E-02   -0.28229E-01    96   0.158E+00    0.187E-01
DAV:   2    -0.102360545731E+03    0.20535E-03   -0.20922E-03   132   0.139E-01    0.938E-02
DAV:   3    -0.102360425207E+03    0.12052E-03   -0.34230E-04   132   0.507E-02    0.315E-02
DAV:   4    -0.102360421779E+03    0.34283E-05   -0.72771E-05   132   0.246E-02    0.114E-02
DAV:   5    -0.102360420559E+03    0.12193E-05   -0.34987E-06   132   0.819E-03    0.453E-03
DAV:   6    -0.102360421498E+03   -0.93856E-06   -0.23498E-06   132   0.515E-03
 130 F= -.10236042E+03 E0= -.10236042E+03  d E =-.671684E-11
       N       E                     dE             d eps       ncg     rms          rms(c)
DAV:   1    -0.102361007176E+03   -0.58662E-03   -0.53953E-01    96   0.228E+00    0.196E-01
DAV:   2    -0.102360775806E+03    0.23137E-03   -0.28776E-03   132   0.168E-01    0.111E-01
DAV:   3    -0.102360621945E+03    0.15386E-03   -0.44004E-04   132   0.632E-02    0.242E-02
DAV:   4    -0.102360628130E+03   -0.61853E-05   -0.67610E-05   120   0.263E-02    0.974E-03
DAV:   5    -0.102360628617E+03   -0.48720E-06   -0.30488E-06   132   0.632E-03
 131 F= -.10236063E+03 E0= -.10236063E+03  d E =-.475661E-11
       N       E                     dE             d eps       ncg     rms          rms(c)
DAV:   1    -0.102360281310E+03    0.34682E-03   -0.27143E-01    96   0.161E+00    0.139E-01
DAV:   2    -0.102360164019E+03    0.11729E-03   -0.14318E-03   132   0.116E-01    0.781E-02
DAV:   3    -0.102360086482E+03    0.77536E-04   -0.22223E-04   132   0.430E-02    0.174E-02
DAV:   4    -0.102360089366E+03   -0.28837E-05   -0.32603E-05   132   0.177E-02    0.631E-03
DAV:   5    -0.102360090057E+03   -0.69103E-06   -0.16904E-06   132   0.467E-03
 132 F= -.10236009E+03 E0= -.10236009E+03  d E =-.581543E-11
       N       E                     dE             d eps       ncg     rms          rms(c)
DAV:   1    -0.102360527063E+03   -0.43770E-03   -0.55017E-01    96   0.220E+00    0.223E-01
DAV:   2    -0.102360235440E+03    0.29162E-03   -0.31761E-03   132   0.174E-01    0.118E-01
DAV:   3    -0.102360049652E+03    0.18579E-03   -0.50669E-04   132   0.651E-02    0.348E-02
DAV:   4    -0.102360051903E+03   -0.22509E-05   -0.10356E-04   144   0.303E-02    0.118E-02
DAV:   5    -0.102360050947E+03    0.95569E-06   -0.53553E-06   132   0.882E-03
 133 F= -.10236005E+03 E0= -.10236005E+03  d E =-.488185E-11
       N       E                     dE             d eps       ncg     rms          rms(c)
DAV:   1    -0.102360319692E+03   -0.26779E-03   -0.27630E-01    96   0.193E+00    0.160E-01
DAV:   2    -0.102360221625E+03    0.98066E-04   -0.20749E-03   120   0.162E-01    0.858E-02
DAV:   3    -0.102360130907E+03    0.90718E-04   -0.21768E-04   132   0.473E-02    0.277E-02
DAV:   4    -0.102360130578E+03    0.32889E-06   -0.58405E-05   132   0.235E-02    0.834E-03
DAV:   5    -0.102360129894E+03    0.68472E-06   -0.36721E-06   132   0.729E-03
 134 F= -.10236013E+03 E0= -.10236013E+03  d E =-.574313E-11
       N       E                     dE             d eps       ncg     rms          rms(c)
DAV:   1    -0.102360149263E+03   -0.18685E-04   -0.55259E-01    96   0.237E+00    0.231E-01
DAV:   2    -0.102359832175E+03    0.31709E-03   -0.33676E-03   132   0.184E-01    0.121E-01
DAV:   3    -0.102359617854E+03    0.21432E-03   -0.47682E-04   132   0.609E-02    0.373E-02
DAV:   4    -0.102359613045E+03    0.48086E-05   -0.10442E-04   144   0.297E-02    0.125E-02
DAV:   5    -0.102359613259E+03   -0.21355E-06   -0.63608E-06   132   0.997E-03
 135 F= -.10235961E+03 E0= -.10235961E+03  d E =-.443851E-11
       N       E                     dE             d eps       ncg     rms          rms(c)
DAV:   1    -0.102359437942E+03    0.17510E-03   -0.29005E-01    96   0.170E+00    0.208E-01
DAV:   2    -0.102359173371E+03    0.26457E-03   -0.23569E-03   120   0.159E-01    0.103E-01
DAV:   3    -0.102359033886E+03    0.13949E-03   -0.42333E-04   132   0.603E-02    0.348E-02
DAV:   4    -0.102359035255E+03   -0.13698E-05   -0.11166E-04   132   0.315E-02    0.153E-02
DAV:   5    -0.102359033697E+03    0.15586E-05   -0.44757E-06   132   0.880E-03    0.552E-03
DAV:   6    -0.102359033847E+03   -0.15008E-06   -0.29562E-06   132   0.587E-03
 136 F= -.10235903E+03 E0= -.10235903E+03  d E =-.519435E-11
       N       E                     dE             d eps       ncg     rms          rms(c)
DAV:   1    -0.102359543425E+03   -0.50973E-03   -0.57104E-01    96   0.238E+00    0.268E-01
DAV:   2    -0.102359012790E+03    0.53064E-03   -0.45502E-03   132   0.213E-01    0.137E-01
DAV:   3    -0.102358717907E+03    0.29488E-03   -0.84191E-04   132   0.832E-02    0.446E-02
DAV:   4    -0.102358719401E+03   -0.14948E-05   -0.19414E-04   132   0.426E-02    0.209E-02
DAV:   5    -0.102358718723E+03    0.67813E-06   -0.72652E-06   132   0.104E-02
 137 F= -.10235872E+03 E0= -.10235872E+03  d E =-.523261E-11
       N       E                     dE             d eps       ncg     rms          rms(c)
DAV:   1    -0.102360592007E+03   -0.18726E-02   -0.28822E-01   108   0.169E+00    0.202E-01
DAV:   2    -0.102360317733E+03    0.27427E-03   -0.23159E-03   132   0.161E-01    0.100E-01
DAV:   3    -0.102360180079E+03    0.13765E-03   -0.43750E-04   132   0.634E-02    0.327E-02
DAV:   4    -0.102360182844E+03   -0.27648E-05   -0.10593E-04   132   0.321E-02    0.151E-02
DAV:   5    -0.102360181839E+03    0.10053E-05   -0.38870E-06   132   0.832E-03    0.631E-03
DAV:   6    -0.102360181999E+03   -0.16050E-06   -0.29344E-06   132   0.624E-03
 138 F= -.10236018E+03 E0= -.10236018E+03  d E =-.562918E-11
       N       E                     dE             d eps       ncg     rms          rms(c)
DAV:   1    -0.102360317459E+03   -0.13562E-03   -0.54781E-01    96   0.252E+00    0.225E-01
DAV:   2    -0.102360009301E+03    0.30816E-03   -0.33505E-03   132   0.192E-01    0.120E-01
DAV:   3    -0.102359804975E+03    0.20433E-03   -0.49597E-04   132   0.671E-02    0.347E-02
DAV:   4    -0.102359807234E+03   -0.22589E-05   -0.10021E-04   144   0.311E-02    0.133E-02
DAV:   5    -0.102359807536E+03   -0.30171E-06   -0.53447E-06   132   0.917E-03
 139 F= -.10235981E+03 E0= -.10235981E+03  d E =-.472075E-11
       N       E                     dE             d eps       ncg     rms          rms(c)
DAV:   1    -0.102359913980E+03   -0.10675E-03   -0.27639E-01    96   0.182E+00    0.167E-01
DAV:   2    -0.102359810327E+03    0.10365E-03   -0.19059E-03   120   0.139E-01    0.874E-02
DAV:   3    -0.102359719698E+03    0.90629E-04   -0.25807E-04   132   0.437E-02    0.274E-02
DAV:   4    -0.102359717166E+03    0.25323E-05   -0.43548E-05   144   0.186E-02    0.103E-02
DAV:   5    -0.102359715543E+03    0.16224E-05   -0.25496E-06   132   0.700E-03    0.515E-03
DAV:   6    -0.102359715471E+03    0.71969E-07   -0.22880E-06   132   0.551E-03
 140 F= -.10235972E+03 E0= -.10235972E+03  d E =-.549474E-11
       N       E                     dE             d eps       ncg     rms          rms(c)
DAV:   1    -0.102360135135E+03   -0.41959E-03   -0.55639E-01    96   0.232E+00    0.243E-01
DAV:   2    -0.102359783487E+03    0.35165E-03   -0.35471E-03   132   0.187E-01    0.124E-01
DAV:   3    -0.102359560631E+03    0.22286E-03   -0.52471E-04   132   0.628E-02    0.399E-02
DAV:   4    -0.102359552269E+03    0.83614E-05   -0.10730E-04   132   0.296E-02    0.128E-02
DAV:   5    -0.102359552236E+03    0.33580E-07   -0.65153E-06   132   0.104E-02
 141 F= -.10235955E+03 E0= -.10235955E+03  d E =-.430479E-11
       N       E                     dE             d eps       ncg     rms          rms(c)
DAV:   1    -0.102358709042E+03    0.84323E-03   -0.27253E-01    96   0.163E+00    0.139E-01
DAV:   2    -0.102358579969E+03    0.12907E-03   -0.15001E-03   132   0.122E-01    0.785E-02
DAV:   3    -0.102358494503E+03    0.85467E-04   -0.25866E-04   132   0.483E-02    0.166E-02
DAV:   4    -0.102358499490E+03   -0.49873E-05   -0.47297E-05   132   0.213E-02    0.815E-03
DAV:   5    -0.102358500099E+03   -0.60930E-06   -0.11768E-06   132   0.415E-03
 142 F= -.10235850E+03 E0= -.10235850E+03  d E =-.459920E-11
       N       E                     dE             d eps       ncg     rms          rms(c)
DAV:   1    -0.102359437993E+03   -0.93850E-03   -0.58121E-01   108   0.222E+00    0.288E-01
DAV:   2    -0.102358888153E+03    0.54984E-03   -0.47802E-03   132   0.216E-01    0.142E-01
DAV:   3    -0.102358578510E+03    0.30964E-03   -0.89799E-04   132   0.863E-02    0.469E-02
DAV:   4    -0.102358581241E+03   -0.27311E-05   -0.22677E-04   132   0.430E-02    0.199E-02
DAV:   5    -0.102358579219E+03    0.20217E-05   -0.81644E-06   132   0.112E-02    0.821E-03
DAV:   6    -0.102358579403E+03   -0.18428E-06   -0.52582E-06   120   0.784E-03
 143 F= -.10235858E+03 E0= -.10235858E+03  d E =-.556850E-11
       N       E                     dE             d eps       ncg     rms          rms(c)
DAV:   1    -0.102360901575E+03   -0.23224E-02   -0.28126E-01    96   0.156E+00    0.169E-01
DAV:   2    -0.102360679129E+03    0.22245E-03   -0.18697E-03   132   0.142E-01    0.895E-02
DAV:   3    -0.102360565280E+03    0.11385E-03   -0.33741E-04   132   0.577E-02    0.252E-02
DAV:   4    -0.102360570671E+03   -0.53907E-05   -0.81450E-05   132   0.283E-02    0.119E-02
DAV:   5    -0.102360570666E+03    0.48231E-08   -0.25645E-06   132   0.623E-03
 144 F= -.10236057E+03 E0= -.10236057E+03  d E =-.539074E-11
       N       E                     dE             d eps       ncg     rms          rms(c)
DAV:   1    -0.102360937225E+03   -0.36655E-03   -0.54115E-01    96   0.245E+00    0.199E-01
DAV:   2    -0.102360675316E+03    0.26191E-03   -0.28321E-03   132   0.182E-01    0.112E-01
DAV:   3    -0.102360506692E+03    0.16862E-03   -0.44570E-04   144   0.661E-02    0.234E-02
DAV:   4    -0.102360512191E+03   -0.54988E-05   -0.69537E-05   132   0.272E-02    0.102E-02
DAV:   5    -0.102360512652E+03   -0.46136E-06   -0.29241E-06   132   0.627E-03
 145 F= -.10236051E+03 E0= -.10236051E+03  d E =-.457889E-11
       N       E                     dE             d eps       ncg     rms          rms(c)
DAV:   1    -0.102359862421E+03    0.64977E-03   -0.27034E-01    96   0.202E+00    0.134E-01
DAV:   2    -0.102359800755E+03    0.61667E-04   -0.18319E-03   132   0.159E-01    0.760E-02
DAV:   3    -0.102359725110E+03    0.75645E-04   -0.22425E-04   132   0.508E-02    0.184E-02
DAV:   4    -0.102359728526E+03   -0.34161E-05   -0.52216E-05   132   0.234E-02    0.800E-03
DAV:   5    -0.102359728308E+03    0.21747E-06   -0.15123E-06   120   0.509E-03
 146 F= -.10235973E+03 E0= -.10235973E+03  d E =-.568936E-11
       N       E                     dE             d eps       ncg     rms          rms(c)
DAV:   1    -0.102360039308E+03   -0.31078E-03   -0.53662E-01   108   0.264E+00    0.178E-01
DAV:   2    -0.102359920340E+03    0.11897E-03   -0.33045E-03   132   0.191E-01    0.101E-01
DAV:   3    -0.102359759080E+03    0.16126E-03   -0.49408E-04   132   0.677E-02    0.203E-02
DAV:   4    -0.102359763240E+03   -0.41606E-05   -0.10457E-04   132   0.318E-02    0.107E-02
DAV:   5    -0.102359762011E+03    0.12290E-05   -0.31770E-06   132   0.629E-03    0.652E-03
DAV:   6    -0.102359762707E+03   -0.69623E-06   -0.31882E-06   120   0.600E-03
 147 F= -.10235976E+03 E0= -.10235976E+03  d E =-.467303E-11
       N       E                     dE             d eps       ncg     rms          rms(c)
DAV:   1    -0.102358851242E+03    0.91077E-03   -0.26396E-01    96   0.184E+00    0.112E-01
DAV:   2    -0.102358788177E+03    0.63065E-04   -0.10453E-03   132   0.103E-01    0.641E-02
DAV:   3    -0.102358731391E+03    0.56786E-04   -0.16502E-04   132   0.385E-02    0.105E-02
DAV:   4    -0.102358734182E+03   -0.27909E-05   -0.25350E-05   132   0.161E-02    0.579E-03
DAV:   5    -0.102358735445E+03   -0.12625E-05   -0.90722E-07   108   0.345E-03    0.383E-03
DAV:   6    -0.102358738525E+03   -0.30805E-05   -0.81417E-07   108   0.323E-03    0.712E-04
DAV:   7    -0.102358740320E+03   -0.17947E-05   -0.30221E-07   108   0.182E-03    0.648E-04
DAV:   8    -0.102358743595E+03   -0.32754E-05   -0.20325E-07    96   0.155E-03    0.248E-04
DAV:   9    -0.102358745524E+03   -0.19291E-05   -0.14267E-07   108   0.103E-03    0.224E-04
DAV:  10    -0.102358747314E+03   -0.17900E-05   -0.59964E-08   108   0.688E-04    0.136E-04
DAV:  11    -0.102358748377E+03   -0.10633E-05   -0.40600E-08   108   0.433E-04    0.812E-05
DAV:  12    -0.102358749012E+03   -0.63440E-06   -0.11465E-08   108   0.271E-04
 148 F= -.10235875E+03 E0= -.10235875E+03  d E =-.515709E-11
       N       E                     dE             d eps       ncg     rms          rms(c)
DAV:   1    -0.102358856996E+03   -0.10862E-03   -0.54153E-01   108   0.247E+00    0.207E-01
DAV:   2    -0.102358799059E+03    0.57937E-04   -0.45066E-03   132   0.209E-01    0.110E-01
DAV:   3    -0.102358610161E+03    0.18890E-03   -0.45290E-04   132   0.584E-02    0.350E-02
DAV:   4    -0.102358597279E+03    0.12882E-04   -0.11369E-04   132   0.288E-02    0.116E-02
DAV:   5    -0.102358594876E+03    0.24031E-05   -0.61829E-06   132   0.972E-03    0.618E-03
DAV:   6    -0.102358597227E+03   -0.23512E-05   -0.46430E-06   132   0.740E-03    0.186E-03
DAV:   7    -0.102358601050E+03   -0.38229E-05   -0.14266E-06   132   0.388E-03    0.152E-03
DAV:   8    -0.102358607166E+03   -0.61156E-05   -0.34484E-07   108   0.173E-03    0.550E-04
DAV:   9    -0.102358611887E+03   -0.47212E-05   -0.26434E-07   108   0.133E-03    0.435E-04
DAV:  10    -0.102358618660E+03   -0.67731E-05   -0.36942E-07   108   0.139E-03    0.185E-04
DAV:  11    -0.102358621676E+03   -0.30159E-05   -0.10667E-07   108   0.801E-04    0.202E-04
DAV:  12    -0.102358623823E+03   -0.21468E-05   -0.28066E-08   108   0.469E-04    0.962E-05
DAV:  13    -0.102358625187E+03   -0.13646E-05   -0.20043E-08   108   0.335E-04    0.669E-05
DAV:  14    -0.102358626040E+03   -0.85333E-06   -0.56160E-09   108   0.223E-04
 149 F= -.10235863E+03 E0= -.10235863E+03  d E =-.487077E-11
       N       E                     dE             d eps       ncg     rms          rms(c)
DAV:   1    -0.102360515429E+03   -0.18902E-02   -0.26621E-01    96   0.176E+00    0.128E-01
DAV:   2    -0.102360433807E+03    0.81622E-04   -0.14283E-03   132   0.133E-01    0.713E-02
DAV:   3    -0.102360360943E+03    0.72864E-04   -0.22409E-04   132   0.458E-02    0.158E-02
DAV:   4    -0.102360361841E+03   -0.89749E-06   -0.40152E-05   132   0.198E-02    0.758E-03
DAV:   5    -0.102360362256E+03   -0.41501E-06   -0.17379E-06   120   0.491E-03
 150 F= -.10236036E+03 E0= -.10236036E+03  d E =-.622132E-11
       N       E                     dE             d eps       ncg     rms          rms(c)
DAV:   1    -0.102361005529E+03   -0.64369E-03   -0.52558E-01    96   0.265E+00    0.160E-01
DAV:   2    -0.102360881548E+03    0.12398E-03   -0.21130E-03   120   0.157E-01    0.921E-02
DAV:   3    -0.102360771160E+03    0.11039E-03   -0.36619E-04   132   0.593E-02    0.121E-02
DAV:   4    -0.102360777854E+03   -0.66940E-05   -0.57619E-05   132   0.243E-02    0.733E-03
DAV:   5    -0.102360779001E+03   -0.11465E-05   -0.18911E-06   120   0.465E-03    0.504E-03
DAV:   6    -0.102360782785E+03   -0.37847E-05   -0.16180E-06   120   0.402E-03    0.958E-04
DAV:   7    -0.102360785241E+03   -0.24553E-05   -0.37131E-07   108   0.202E-03    0.853E-04
DAV:   8    -0.102360788797E+03   -0.35565E-05   -0.17435E-07   108   0.162E-03    0.410E-04
DAV:   9    -0.102360792408E+03   -0.36105E-05   -0.23310E-07   108   0.163E-03    0.307E-04
DAV:  10    -0.102360795129E+03   -0.27217E-05   -0.14899E-07   108   0.101E-03    0.152E-04
DAV:  11    -0.102360796146E+03   -0.10171E-05   -0.27345E-08   108   0.419E-04    0.106E-04
DAV:  12    -0.102360796924E+03   -0.77764E-06   -0.14441E-08   108   0.300E-04
 151 F= -.10236080E+03 E0= -.10236080E+03  d E =-.918200E-10
       N       E                     dE             d eps       ncg     rms          rms(c)
DAV:   1    -0.102358544131E+03    0.22520E-02   -0.26698E-01    96   0.190E+00    0.130E-01
DAV:   2    -0.102358491525E+03    0.52606E-04   -0.19068E-03   132   0.146E-01    0.715E-02
DAV:   3    -0.102358410086E+03    0.81439E-04   -0.22964E-04   132   0.483E-02    0.191E-02
DAV:   4    -0.102358412554E+03   -0.24676E-05   -0.69233E-05   132   0.248E-02    0.779E-03
DAV:   5    -0.102358412739E+03   -0.18521E-06   -0.24838E-06   132   0.563E-03
 152 F= -.10235841E+03 E0= -.10235841E+03  d E =-.538558E-11
       N       E                     dE             d eps       ncg     rms          rms(c)
DAV:   1    -0.102358720356E+03   -0.30780E-03   -0.54584E-01   108   0.249E+00    0.207E-01
DAV:   2    -0.102358618550E+03    0.10181E-03   -0.45636E-03   132   0.219E-01    0.114E-01
DAV:   3    -0.102358409324E+03    0.20923E-03   -0.58517E-04   132   0.716E-02    0.308E-02
DAV:   4    -0.102358409512E+03   -0.18768E-06   -0.16068E-04   132   0.362E-02    0.132E-02
DAV:   5    -0.102358407306E+03    0.22053E-05   -0.45700E-06   132   0.811E-03    0.858E-03
DAV:   6    -0.102358407525E+03   -0.21904E-06   -0.56145E-06   132   0.876E-03
 153 F= -.10235841E+03 E0= -.10235841E+03  d E =-.537059E-11
       N       E                     dE             d eps       ncg     rms          rms(c)
DAV:   1    -0.102360667911E+03   -0.22606E-02   -0.26890E-01    96   0.175E+00    0.141E-01
DAV:   2    -0.102360616859E+03    0.51052E-04   -0.19624E-03   120   0.143E-01    0.757E-02
DAV:   3    -0.102360542765E+03    0.74095E-04   -0.23446E-04   132   0.418E-02    0.211E-02
DAV:   4    -0.102360541123E+03    0.16417E-05   -0.40494E-05   132   0.187E-02    0.836E-03
DAV:   5    -0.102360540308E+03    0.81479E-06   -0.28005E-06   132   0.626E-03
 154 F= -.10236054E+03 E0= -.10236054E+03  d E =-.489696E-11
       N       E                     dE             d eps       ncg     rms          rms(c)
DAV:   1    -0.102360691950E+03   -0.15083E-03   -0.53170E-01    96   0.253E+00    0.161E-01
DAV:   2    -0.102360589160E+03    0.10279E-03   -0.21287E-03   120   0.153E-01    0.923E-02
DAV:   3    -0.102360480875E+03    0.10828E-03   -0.35006E-04   132   0.552E-02    0.148E-02
DAV:   4    -0.102360483927E+03   -0.30514E-05   -0.52649E-05   132   0.231E-02    0.776E-03
DAV:   5    -0.102360483337E+03    0.59004E-06   -0.18073E-06   132   0.470E-03
 155 F= -.10236048E+03 E0= -.10236048E+03  d E =-.527871E-11
       N       E                     dE             d eps       ncg     rms          rms(c)
DAV:   1    -0.102359976860E+03    0.50707E-03   -0.26462E-01    96   0.181E+00    0.115E-01
DAV:   2    -0.102359911480E+03    0.65380E-04   -0.11055E-03   132   0.111E-01    0.669E-02
DAV:   3    -0.102359859846E+03    0.51634E-04   -0.19567E-04   132   0.447E-02    0.862E-03
DAV:   4    -0.102359863637E+03   -0.37909E-05   -0.34148E-05   132   0.187E-02    0.603E-03
DAV:   5    -0.102359864041E+03   -0.40355E-06   -0.84269E-07   108   0.343E-03
 156 F= -.10235986E+03 E0= -.10235986E+03  d E =-.687446E-11
       N       E                     dE             d eps       ncg     rms          rms(c)
DAV:   1    -0.102360508794E+03   -0.64516E-03   -0.52673E-01    96   0.255E+00    0.174E-01
DAV:   2    -0.102360396832E+03    0.11196E-03   -0.26934E-03   120   0.170E-01    0.970E-02
DAV:   3    -0.102360266630E+03    0.13020E-03   -0.37530E-04   132   0.556E-02    0.202E-02
DAV:   4    -0.102360266311E+03    0.31892E-06   -0.58513E-05   132   0.235E-02    0.871E-03
DAV:   5    -0.102360266315E+03   -0.41987E-08   -0.36622E-06   132   0.654E-03
 157 F= -.10236027E+03 E0= -.10236027E+03  d E =-.825584E-10
