       N       E                     dE             d eps       ncg     rms          rms(c)
DAV:   1     0.246129400329E+03    0.24613E+03   -0.10182E+04   120   0.484E+02
DAV:   2    -0.228781000278E+02   -0.26901E+03   -0.25442E+03   156   0.917E+01
DAV:   3    -0.102704064336E+03   -0.79826E+02   -0.79592E+02   120   0.555E+01
DAV:   4    -0.106624726691E+03   -0.39207E+01   -0.39056E+01   120   0.176E+01
DAV:   5    -0.106704366074E+03   -0.79639E-01   -0.79545E-01   156   0.279E+00    0.154E+01
DAV:   6    -0.103188920684E+03    0.35154E+01   -0.16334E+00   120   0.441E+00    0.889E+00
DAV:   7    -0.101411425880E+03    0.17775E+01   -0.43979E+00   120   0.643E+00    0.131E+00
DAV:   8    -0.101356279848E+03    0.55146E-01   -0.34905E-01   132   0.226E+00    0.712E-01
DAV:   9    -0.101319759308E+03    0.36521E-01   -0.66469E-02   144   0.698E-01    0.396E-01
DAV:  10    -0.101318779817E+03    0.97949E-03   -0.37448E-03   132   0.212E-01    0.155E-01
DAV:  11    -0.101317581992E+03    0.11978E-02   -0.65370E-03   120   0.222E-01    0.113E-01
DAV:  12    -0.101322994655E+03   -0.54127E-02   -0.14577E-03   132   0.107E-01    0.597E-02
DAV:  13    -0.101326950795E+03   -0.39561E-02   -0.20556E-03   132   0.117E-01    0.501E-02
DAV:  14    -0.101329694456E+03   -0.27437E-02   -0.19021E-04   144   0.472E-02    0.252E-02
DAV:  15    -0.101334911275E+03   -0.52168E-02   -0.62885E-04    96   0.643E-02    0.153E-02
DAV:  16    -0.101336547406E+03   -0.16361E-02   -0.12435E-04   132   0.347E-02    0.105E-02
DAV:  17    -0.101337675018E+03   -0.11276E-02   -0.94358E-05   108   0.222E-02    0.714E-03
DAV:  18    -0.101337965172E+03   -0.29015E-03   -0.69734E-06   132   0.660E-03    0.257E-03
DAV:  19    -0.101338263861E+03   -0.29869E-03   -0.14874E-05   108   0.864E-03    0.240E-03
DAV:  20    -0.101338313093E+03   -0.49231E-04   -0.87713E-07    96   0.302E-03    0.113E-03
DAV:  21    -0.101338353224E+03   -0.40132E-04   -0.12762E-06    96   0.274E-03    0.422E-04
DAV:  22    -0.101338360703E+03   -0.74783E-05   -0.12244E-07   108   0.109E-03    0.625E-04
DAV:  23    -0.101338365683E+03   -0.49801E-05   -0.10491E-07    84   0.805E-04    0.239E-04
DAV:  24    -0.101338368760E+03   -0.30768E-05   -0.51668E-08    96   0.633E-04    0.197E-04
DAV:  25    -0.101338370001E+03   -0.12415E-05   -0.10736E-08    84   0.382E-04    0.508E-05
DAV:  26    -0.101338370473E+03   -0.47156E-06    0.23228E-09   108   0.185E-04
   1 F= -.10133837E+03 E0= -.10133837E+03  d E =-.924114E-10
       N       E                     dE             d eps       ncg     rms          rms(c)
DAV:   1    -0.101335101455E+03    0.32685E-02   -0.83702E-02    96   0.792E-01    0.116E-01
DAV:   2    -0.101335460548E+03   -0.35909E-03   -0.39012E-03   120   0.201E-01    0.543E-02
DAV:   3    -0.101335451164E+03    0.93840E-05   -0.13005E-04   120   0.417E-02    0.284E-02
DAV:   4    -0.101335454053E+03   -0.28890E-05   -0.30055E-05   108   0.207E-02    0.764E-03
DAV:   5    -0.101335453434E+03    0.61876E-06   -0.67311E-06   132   0.970E-03
   2 F= -.10133545E+03 E0= -.10133545E+03  d E =-.793610E-10
       N       E                     dE             d eps       ncg     rms          rms(c)
DAV:   1    -0.101333763016E+03    0.16910E-02   -0.33417E-01    96   0.161E+00    0.242E-01
DAV:   2    -0.101335180488E+03   -0.14175E-02   -0.15370E-02   120   0.394E-01    0.108E-01
DAV:   3    -0.101335150591E+03    0.29897E-04   -0.50889E-04   120   0.821E-02    0.578E-02
DAV:   4    -0.101335166100E+03   -0.15509E-04   -0.12181E-04   108   0.412E-02    0.155E-02
DAV:   5    -0.101335162405E+03    0.36953E-05   -0.27656E-05   120   0.194E-02    0.809E-03
DAV:   6    -0.101335162464E+03   -0.59664E-07   -0.45112E-06   144   0.697E-03
   3 F= -.10133516E+03 E0= -.10133516E+03  d E =-.833417E-11
       N       E                     dE             d eps       ncg     rms          rms(c)
DAV:   1    -0.101334712418E+03    0.44999E-03   -0.16829E-01    96   0.114E+00    0.155E-01
DAV:   2    -0.101335409213E+03   -0.69680E-03   -0.75155E-03   108   0.280E-01    0.747E-02
DAV:   3    -0.101335402013E+03    0.71997E-05   -0.24929E-04   120   0.580E-02    0.380E-02
DAV:   4    -0.101335414001E+03   -0.11987E-04   -0.55501E-05   108   0.278E-02    0.110E-02
DAV:   5    -0.101335413726E+03    0.27458E-06   -0.98897E-06   120   0.124E-02
   4 F= -.10133541E+03 E0= -.10133541E+03  d E =-.688837E-11
       N       E                     dE             d eps       ncg     rms          rms(c)
DAV:   1    -0.101333920497E+03    0.14935E-02   -0.33378E-01    96   0.162E+00    0.194E-01
DAV:   2    -0.101335388990E+03   -0.14685E-02   -0.15420E-02   108   0.404E-01    0.106E-01
DAV:   3    -0.101335377898E+03    0.11092E-04   -0.45916E-04   108   0.822E-02    0.527E-02
DAV:   4    -0.101335396078E+03   -0.18180E-04   -0.12272E-04   120   0.422E-02    0.149E-02
DAV:   5    -0.101335391470E+03    0.46074E-05   -0.21173E-05   120   0.183E-02    0.794E-03
DAV:   6    -0.101335391259E+03    0.21132E-06   -0.65398E-06   132   0.854E-03
   5 F= -.10133539E+03 E0= -.10133539E+03  d E =-.889033E-11
       N       E                     dE             d eps       ncg     rms          rms(c)
DAV:   1    -0.101333214895E+03    0.21766E-02   -0.16735E-01    96   0.116E+00    0.147E-01
DAV:   2    -0.101334125327E+03   -0.91043E-03   -0.95246E-03   120   0.317E-01    0.901E-02
DAV:   3    -0.101334097082E+03    0.28246E-04   -0.25621E-04   108   0.625E-02    0.471E-02
DAV:   4    -0.101334106093E+03   -0.90114E-05   -0.10416E-04   120   0.366E-02    0.114E-02
DAV:   5    -0.101334104835E+03    0.12576E-05   -0.18202E-05   108   0.158E-02    0.697E-03
DAV:   6    -0.101334106991E+03   -0.21551E-05   -0.40122E-06   132   0.632E-03    0.372E-03
DAV:   7    -0.101334112583E+03   -0.55919E-05   -0.62238E-07    84   0.279E-03    0.124E-03
DAV:   8    -0.101334117950E+03   -0.53677E-05   -0.34457E-07    96   0.180E-03    0.605E-04
DAV:   9    -0.101334125677E+03   -0.77263E-05   -0.51256E-07    96   0.179E-03    0.451E-04
DAV:  10    -0.101334131545E+03   -0.58686E-05   -0.39256E-07    96   0.143E-03    0.212E-04
DAV:  11    -0.101334133572E+03   -0.20263E-05   -0.85164E-08   108   0.752E-04    0.162E-04
DAV:  12    -0.101334135488E+03   -0.19163E-05   -0.58425E-08    84   0.544E-04    0.852E-05
DAV:  13    -0.101334136474E+03   -0.98576E-06   -0.24345E-08    96   0.346E-04
   6 F= -.10133414E+03 E0= -.10133414E+03  d E =-.929996E-11
       N       E                     dE             d eps       ncg     rms          rms(c)
DAV:   1    -0.101331724101E+03    0.24114E-02   -0.34157E-01    96   0.161E+00    0.250E-01
DAV:   2    -0.101333911940E+03   -0.21878E-02   -0.23732E-02    96   0.466E-01    0.166E-01
DAV:   3    -0.101333752782E+03    0.15916E-03   -0.66806E-04   132   0.101E-01    0.809E-02
DAV:   4    -0.101333757263E+03   -0.44807E-05   -0.41301E-04   108   0.670E-02    0.165E-02
DAV:   5    -0.101333746474E+03    0.10789E-04   -0.55255E-05   132   0.258E-02    0.111E-02
DAV:   6    -0.101333747512E+03   -0.10377E-05   -0.12727E-05   108   0.911E-03    0.652E-03
DAV:   7    -0.101333759993E+03   -0.12481E-04   -0.11526E-06   120   0.342E-03    0.276E-03
DAV:   8    -0.101333780543E+03   -0.20550E-04   -0.18861E-06   108   0.401E-03    0.127E-03
DAV:   9    -0.101333796435E+03   -0.15891E-04   -0.97785E-07   108   0.222E-03    0.144E-03
DAV:  10    -0.101333818980E+03   -0.22545E-04   -0.13639E-06   108   0.232E-03    0.538E-04
DAV:  11    -0.101333823249E+03   -0.42689E-05   -0.78012E-08   108   0.827E-04    0.340E-04
DAV:  12    -0.101333832476E+03   -0.92277E-05   -0.29829E-07    84   0.110E-03    0.263E-04
DAV:  13    -0.101333834579E+03   -0.21023E-05   -0.48435E-08   108   0.477E-04    0.208E-04
DAV:  14    -0.101333836686E+03   -0.21069E-05   -0.21495E-08    84   0.385E-04    0.796E-05
DAV:  15    -0.101333837578E+03   -0.89256E-06   -0.71963E-09    96   0.248E-04
   7 F= -.10133384E+03 E0= -.10133384E+03  d E =-.572638E-10
       N       E                     dE             d eps       ncg     rms          rms(c)
DAV:   1    -0.101333025864E+03    0.81082E-03   -0.19425E-01    96   0.128E+00    0.195E-01
DAV:   2    -0.101334359440E+03   -0.13336E-02   -0.13876E-02   108   0.393E-01    0.119E-01
DAV:   3    -0.101334288498E+03    0.70942E-04   -0.40232E-04   144   0.807E-02    0.653E-02
DAV:   4    -0.101334287868E+03    0.63038E-06   -0.18695E-04   108   0.493E-02    0.134E-02
DAV:   5    -0.101334283602E+03    0.42656E-05   -0.28943E-05   120   0.186E-02    0.840E-03
DAV:   6    -0.101334284529E+03   -0.92677E-06   -0.31664E-06   132   0.597E-03
   8 F= -.10133428E+03 E0= -.10133428E+03  d E =-.946810E-10
       N       E                     dE             d eps       ncg     rms          rms(c)
DAV:   1    -0.101332400419E+03    0.18832E-02   -0.33839E-01    96   0.169E+00    0.251E-01
DAV:   2    -0.101334384642E+03   -0.19842E-02   -0.20352E-02    96   0.461E-01    0.153E-01
DAV:   3    -0.101334325196E+03    0.59447E-04   -0.52403E-04   132   0.852E-02    0.842E-02
DAV:   4    -0.101334320253E+03    0.49428E-05   -0.22968E-04   108   0.550E-02    0.151E-02
DAV:   5    -0.101334311008E+03    0.92454E-05   -0.44421E-05   144   0.242E-02    0.110E-02
DAV:   6    -0.101334310412E+03    0.59578E-06   -0.85189E-06   120   0.956E-03
   9 F= -.10133431E+03 E0= -.10133431E+03  d E =-.647071E-11
       N       E                     dE             d eps       ncg     rms          rms(c)
DAV:   1    -0.101332325014E+03    0.19860E-02   -0.17204E-01    96   0.119E+00    0.184E-01
DAV:   2    -0.101333479609E+03   -0.11546E-02   -0.11548E-02   132   0.354E-01    0.115E-01
DAV:   3    -0.101333460520E+03    0.19089E-04   -0.27069E-04   108   0.656E-02    0.639E-02
DAV:   4    -0.101333481131E+03   -0.20611E-04   -0.16452E-04   120   0.471E-02    0.115E-02
DAV:   5    -0.101333477065E+03    0.40657E-05   -0.34913E-05   132   0.211E-02    0.863E-03
DAV:   6    -0.101333477381E+03   -0.31572E-06   -0.60898E-06   108   0.718E-03
  10 F= -.10133348E+03 E0= -.10133348E+03  d E =-.460017E-11
       N       E                     dE             d eps       ncg     rms          rms(c)
DAV:   1    -0.101331255348E+03    0.22217E-02   -0.35764E-01    96   0.171E+00    0.281E-01
DAV:   2    -0.101333553218E+03   -0.22979E-02   -0.23547E-02   132   0.521E-01    0.175E-01
DAV:   3    -0.101333449645E+03    0.10357E-03   -0.64350E-04   108   0.109E-01    0.814E-02
DAV:   4    -0.101333481067E+03   -0.31422E-04   -0.41738E-04   120   0.709E-02    0.171E-02
DAV:   5    -0.101333466219E+03    0.14848E-04   -0.46657E-05   132   0.250E-02    0.102E-02
DAV:   6    -0.101333468201E+03   -0.19824E-05   -0.14103E-05   108   0.102E-02    0.472E-03
DAV:   7    -0.101333481870E+03   -0.13668E-04   -0.12611E-06   120   0.370E-03    0.197E-03
DAV:   8    -0.101333501806E+03   -0.19936E-04   -0.27324E-06    96   0.421E-03    0.132E-03
DAV:   9    -0.101333515618E+03   -0.13812E-04   -0.11143E-06   108   0.260E-03    0.116E-03
DAV:  10    -0.101333530601E+03   -0.14983E-04   -0.11804E-06    96   0.240E-03    0.379E-04
DAV:  11    -0.101333534783E+03   -0.41817E-05   -0.12138E-07   108   0.975E-04    0.386E-04
DAV:  12    -0.101333540591E+03   -0.58084E-05   -0.21176E-07    84   0.102E-03    0.142E-04
DAV:  13    -0.101333542477E+03   -0.18864E-05   -0.59955E-08    96   0.543E-04    0.116E-04
DAV:  14    -0.101333544145E+03   -0.16676E-05   -0.18234E-08    96   0.384E-04    0.462E-05
DAV:  15    -0.101333544640E+03   -0.49541E-06   -0.22657E-09   108   0.207E-04
  11 F= -.10133354E+03 E0= -.10133354E+03  d E =-.441037E-11
       N       E                     dE             d eps       ncg     rms          rms(c)
DAV:   1    -0.101333838490E+03   -0.29435E-03   -0.17372E-01    96   0.120E+00    0.177E-01
DAV:   2    -0.101335070541E+03   -0.12321E-02   -0.12623E-02   108   0.372E-01    0.119E-01
DAV:   3    -0.101335010711E+03    0.59829E-04   -0.30780E-04   144   0.722E-02    0.602E-02
DAV:   4    -0.101335014168E+03   -0.34568E-05   -0.19305E-04   132   0.497E-02    0.116E-02
DAV:   5    -0.101335008527E+03    0.56414E-05   -0.34609E-05   132   0.211E-02    0.827E-03
DAV:   6    -0.101335010689E+03   -0.21623E-05   -0.67421E-06   132   0.719E-03    0.474E-03
DAV:   7    -0.101335020907E+03   -0.10218E-04   -0.88788E-07   120   0.319E-03    0.196E-03
DAV:   8    -0.101335036246E+03   -0.15339E-04   -0.19220E-06    96   0.405E-03    0.118E-03
DAV:   9    -0.101335047938E+03   -0.11691E-04   -0.10093E-06   120   0.261E-03    0.108E-03
DAV:  10    -0.101335058224E+03   -0.10286E-04   -0.68106E-07    84   0.195E-03    0.369E-04
DAV:  11    -0.101335061374E+03   -0.31504E-05   -0.16728E-07   108   0.971E-04    0.258E-04
DAV:  12    -0.101335065500E+03   -0.41258E-05   -0.14155E-07    84   0.831E-04    0.150E-04
DAV:  13    -0.101335067413E+03   -0.19131E-05   -0.81376E-08    96   0.561E-04    0.132E-04
DAV:  14    -0.101335068585E+03   -0.11722E-05   -0.16902E-08    96   0.325E-04    0.725E-05
DAV:  15    -0.101335069097E+03   -0.51203E-06   -0.24489E-09    96   0.215E-04
  12 F= -.10133507E+03 E0= -.10133507E+03  d E =-.446077E-11
       N       E                     dE             d eps       ncg     rms          rms(c)
DAV:   1    -0.101333374182E+03    0.16944E-02   -0.33013E-01    96   0.156E+00    0.221E-01
DAV:   2    -0.101335146746E+03   -0.17726E-02   -0.18182E-02   144   0.411E-01    0.128E-01
DAV:   3    -0.101335129614E+03    0.17132E-04   -0.51223E-04   144   0.815E-02    0.752E-02
DAV:   4    -0.101335137941E+03   -0.83275E-05   -0.14563E-04   132   0.495E-02    0.144E-02
DAV:   5    -0.101335132386E+03    0.55554E-05   -0.40831E-05   132   0.240E-02    0.939E-03
DAV:   6    -0.101335131845E+03    0.54043E-06   -0.56657E-06   132   0.820E-03
  13 F= -.10133513E+03 E0= -.10133513E+03  d E =-.566722E-11
       N       E                     dE             d eps       ncg     rms          rms(c)
DAV:   1    -0.101332705226E+03    0.24272E-02   -0.16587E-01    96   0.124E+00    0.159E-01
DAV:   2    -0.101334007638E+03   -0.13024E-02   -0.13300E-02   144   0.374E-01    0.107E-01
DAV:   3    -0.101333982590E+03    0.25048E-04   -0.32007E-04   120   0.697E-02    0.622E-02
DAV:   4    -0.101333997400E+03   -0.14811E-04   -0.13693E-04   120   0.472E-02    0.106E-02
DAV:   5    -0.101333997629E+03   -0.22837E-06   -0.39036E-05   144   0.224E-02    0.831E-03
DAV:   6    -0.101333998360E+03   -0.73116E-06   -0.44906E-06   132   0.722E-03
  14 F= -.10133400E+03 E0= -.10133400E+03  d E =-.687956E-11
       N       E                     dE             d eps       ncg     rms          rms(c)
DAV:   1    -0.101331526958E+03    0.24707E-02   -0.34421E-01    96   0.167E+00    0.221E-01
DAV:   2    -0.101334008671E+03   -0.24817E-02   -0.24869E-02   132   0.493E-01    0.165E-01
DAV:   3    -0.101333956221E+03    0.52450E-04   -0.49786E-04   108   0.851E-02    0.970E-02
DAV:   4    -0.101333930667E+03    0.25555E-04   -0.30342E-04   120   0.608E-02    0.148E-02
DAV:   5    -0.101333920958E+03    0.97086E-05   -0.57079E-05   144   0.258E-02    0.112E-02
DAV:   6    -0.101333920999E+03   -0.41535E-07   -0.12865E-05   120   0.112E-02    0.688E-03
DAV:   7    -0.101333941223E+03   -0.20223E-04   -0.50863E-06   108   0.722E-03    0.245E-03
DAV:   8    -0.101333966957E+03   -0.25734E-04   -0.23692E-06   132   0.473E-03    0.126E-03
DAV:   9    -0.101333989971E+03   -0.23014E-04   -0.23278E-06   108   0.348E-03    0.141E-03
DAV:  10    -0.101334006739E+03   -0.16768E-04   -0.11934E-06   108   0.217E-03    0.540E-04
DAV:  11    -0.101334013648E+03   -0.69092E-05   -0.33836E-07   108   0.118E-03    0.306E-04
DAV:  12    -0.101334019970E+03   -0.63221E-05   -0.35715E-07    84   0.113E-03    0.159E-04
DAV:  13    -0.101334021964E+03   -0.19937E-05   -0.84138E-08    96   0.604E-04    0.143E-04
DAV:  14    -0.101334023351E+03   -0.13873E-05   -0.20458E-08    84   0.381E-04    0.498E-05
DAV:  15    -0.101334023829E+03   -0.47744E-06   -0.38961E-09   108   0.213E-04
  15 F= -.10133402E+03 E0= -.10133402E+03  d E =-.907768E-10
       N       E                     dE             d eps       ncg     rms          rms(c)
DAV:   1    -0.101334299433E+03   -0.27608E-03   -0.16909E-01    96   0.117E+00    0.150E-01
DAV:   2    -0.101335362163E+03   -0.10627E-02   -0.10839E-02   108   0.335E-01    0.103E-01
DAV:   3    -0.101335335531E+03    0.26632E-04   -0.23806E-04   132   0.609E-02    0.558E-02
DAV:   4    -0.101335335264E+03    0.26712E-06   -0.12077E-04   120   0.423E-02    0.102E-02
DAV:   5    -0.101335330455E+03    0.48088E-05   -0.28446E-05   144   0.197E-02    0.734E-03
DAV:   6    -0.101335330303E+03    0.15183E-06   -0.51897E-06   108   0.683E-03
  16 F= -.10133533E+03 E0= -.10133533E+03  d E =-.788586E-11
       N       E                     dE             d eps       ncg     rms          rms(c)
DAV:   1    -0.101333710552E+03    0.16199E-02   -0.33984E-01    96   0.163E+00    0.190E-01
DAV:   2    -0.101335254277E+03   -0.15437E-02   -0.15435E-02   108   0.392E-01    0.113E-01
DAV:   3    -0.101335288844E+03   -0.34567E-04   -0.44732E-04   132   0.823E-02    0.556E-02
DAV:   4    -0.101335320830E+03   -0.31985E-04   -0.13253E-04   108   0.498E-02    0.124E-02
DAV:   5    -0.101335320882E+03   -0.52260E-07   -0.34466E-05   132   0.218E-02    0.919E-03
DAV:   6    -0.101335322332E+03   -0.14505E-05   -0.59599E-06   132   0.758E-03    0.522E-03
DAV:   7    -0.101335326145E+03   -0.38125E-05   -0.68441E-07    84   0.355E-03    0.209E-03
DAV:   8    -0.101335331506E+03   -0.53611E-05   -0.75835E-07   108   0.352E-03    0.990E-04
DAV:   9    -0.101335340330E+03   -0.88236E-05   -0.63041E-07    84   0.335E-03    0.522E-04
DAV:  10    -0.101335344670E+03   -0.43407E-05   -0.40752E-07    96   0.208E-03    0.485E-04
DAV:  11    -0.101335345921E+03   -0.12502E-05   -0.51067E-08   120   0.905E-04    0.422E-04
DAV:  12    -0.101335348853E+03   -0.29321E-05   -0.54409E-08    84   0.719E-04    0.181E-04
DAV:  13    -0.101335351691E+03   -0.28378E-05   -0.10326E-07    84   0.703E-04    0.230E-04
DAV:  14    -0.101335352666E+03   -0.97570E-06   -0.12206E-08   108   0.459E-04
  17 F= -.10133535E+03 E0= -.10133535E+03  d E =-.483315E-11
       N       E                     dE             d eps       ncg     rms          rms(c)
DAV:   1    -0.101332514418E+03    0.28373E-02   -0.17149E-01    96   0.118E+00    0.146E-01
DAV:   2    -0.101333494703E+03   -0.98028E-03   -0.99554E-03   108   0.327E-01    0.957E-02
DAV:   3    -0.101333480428E+03    0.14275E-04   -0.24625E-04   156   0.626E-02    0.491E-02
DAV:   4    -0.101333488129E+03   -0.77011E-05   -0.11030E-04   108   0.420E-02    0.101E-02
DAV:   5    -0.101333484990E+03    0.31387E-05   -0.29211E-05   132   0.197E-02    0.758E-03
DAV:   6    -0.101333484283E+03    0.70648E-06   -0.49724E-06   132   0.680E-03
  18 F= -.10133348E+03 E0= -.10133348E+03  d E =-.868174E-10
       N       E                     dE             d eps       ncg     rms          rms(c)
DAV:   1    -0.101331028921E+03    0.24561E-02   -0.35591E-01    96   0.168E+00    0.243E-01
DAV:   2    -0.101333838709E+03   -0.28098E-02   -0.28141E-02   132   0.535E-01    0.181E-01
DAV:   3    -0.101333734846E+03    0.10386E-03   -0.60617E-04   156   0.958E-02    0.103E-01
DAV:   4    -0.101333731691E+03    0.31548E-05   -0.41316E-04   108   0.724E-02    0.163E-02
DAV:   5    -0.101333722357E+03    0.93338E-05   -0.11056E-04   132   0.345E-02    0.120E-02
DAV:   6    -0.101333720406E+03    0.19507E-05   -0.15149E-05   132   0.105E-02    0.798E-03
DAV:   7    -0.101333738818E+03   -0.18412E-04   -0.41178E-06   132   0.597E-03    0.312E-03
DAV:   8    -0.101333764354E+03   -0.25536E-04   -0.29590E-06   108   0.462E-03    0.129E-03
DAV:   9    -0.101333786115E+03   -0.21760E-04   -0.22394E-06   120   0.328E-03    0.169E-03
DAV:  10    -0.101333802341E+03   -0.16226E-04   -0.12395E-06    96   0.248E-03    0.480E-04
DAV:  11    -0.101333808141E+03   -0.57999E-05   -0.27532E-07   108   0.121E-03    0.316E-04
DAV:  12    -0.101333813875E+03   -0.57346E-05   -0.30741E-07    84   0.108E-03    0.183E-04
DAV:  13    -0.101333815494E+03   -0.16190E-05   -0.55592E-08    96   0.498E-04    0.190E-04
DAV:  14    -0.101333817044E+03   -0.15501E-05   -0.29495E-08    84   0.399E-04    0.731E-05
DAV:  15    -0.101333817557E+03   -0.51316E-06   -0.48795E-09    96   0.223E-04
  19 F= -.10133382E+03 E0= -.10133382E+03  d E =-.752647E-11
       N       E                     dE             d eps       ncg     rms          rms(c)
DAV:   1    -0.101333790827E+03    0.26218E-04   -0.17286E-01    96   0.129E+00    0.156E-01
DAV:   2    -0.101335113643E+03   -0.13228E-02   -0.13569E-02   120   0.403E-01    0.111E-01
DAV:   3    -0.101335066319E+03    0.47324E-04   -0.29727E-04   156   0.695E-02    0.662E-02
DAV:   4    -0.101335052916E+03    0.13403E-04   -0.18419E-04   132   0.552E-02    0.109E-02
DAV:   5    -0.101335048969E+03    0.39476E-05   -0.63645E-05   120   0.283E-02    0.905E-03
DAV:   6    -0.101335046755E+03    0.22139E-05   -0.67208E-06   120   0.819E-03    0.614E-03
DAV:   7    -0.101335053285E+03   -0.65301E-05   -0.21967E-06   108   0.569E-03    0.248E-03
DAV:   8    -0.101335066857E+03   -0.13572E-04   -0.18806E-06   120   0.527E-03    0.134E-03
DAV:   9    -0.101335079834E+03   -0.12978E-04   -0.10342E-06    96   0.324E-03    0.147E-03
DAV:  10    -0.101335090149E+03   -0.10315E-04   -0.40320E-07    96   0.188E-03    0.516E-04
DAV:  11    -0.101335096919E+03   -0.67704E-05   -0.33521E-07    84   0.134E-03    0.269E-04
DAV:  12    -0.101335102380E+03   -0.54604E-05   -0.16970E-07    96   0.892E-04    0.153E-04
DAV:  13    -0.101335104534E+03   -0.21540E-05   -0.51305E-08    84   0.499E-04    0.137E-04
DAV:  14    -0.101335106033E+03   -0.14993E-05   -0.18967E-08    96   0.346E-04    0.100E-04
DAV:  15    -0.101335106759E+03   -0.72563E-06   -0.48130E-09    84   0.231E-04
  20 F= -.10133511E+03 E0= -.10133511E+03  d E =-.820495E-10
       N       E                     dE             d eps       ncg     rms          rms(c)
DAV:   1    -0.101333135962E+03    0.19701E-02   -0.33883E-01    96   0.175E+00    0.202E-01
DAV:   2    -0.101335018323E+03   -0.18824E-02   -0.19061E-02   132   0.462E-01    0.126E-01
DAV:   3    -0.101335004103E+03    0.14219E-04   -0.47783E-04   132   0.870E-02    0.658E-02
DAV:   4    -0.101335017327E+03   -0.13223E-04   -0.18028E-04   132   0.570E-02    0.135E-02
DAV:   5    -0.101335012413E+03    0.49135E-05   -0.49933E-05   132   0.264E-02    0.101E-02
DAV:   6    -0.101335012334E+03    0.79115E-07   -0.76307E-06   132   0.885E-03
  21 F= -.10133501E+03 E0= -.10133501E+03  d E =-.107014E-10
       N       E                     dE             d eps       ncg     rms          rms(c)
DAV:   1    -0.101333110416E+03    0.19020E-02   -0.17098E-01    96   0.129E+00    0.155E-01
DAV:   2    -0.101334277084E+03   -0.11667E-02   -0.11593E-02   132   0.381E-01    0.114E-01
DAV:   3    -0.101334261263E+03    0.15821E-04   -0.23562E-04   120   0.642E-02    0.638E-02
DAV:   4    -0.101334263286E+03   -0.20229E-05   -0.14305E-04   120   0.466E-02    0.103E-02
DAV:   5    -0.101334258785E+03    0.45009E-05   -0.29016E-05   144   0.204E-02    0.771E-03
DAV:   6    -0.101334259223E+03   -0.43755E-06   -0.54883E-06   108   0.769E-03
  22 F= -.10133426E+03 E0= -.10133426E+03  d E =-.537650E-11
       N       E                     dE             d eps       ncg     rms          rms(c)
DAV:   1    -0.101332106544E+03    0.21522E-02   -0.33885E-01    96   0.185E+00    0.221E-01
DAV:   2    -0.101334344995E+03   -0.22385E-02   -0.22563E-02   144   0.511E-01    0.155E-01
DAV:   3    -0.101334299482E+03    0.45513E-04   -0.45856E-04   108   0.848E-02    0.848E-02
DAV:   4    -0.101334298375E+03    0.11065E-05   -0.24283E-04   120   0.593E-02    0.142E-02
DAV:   5    -0.101334285233E+03    0.13143E-04   -0.50228E-05   144   0.265E-02    0.965E-03
DAV:   6    -0.101334281126E+03    0.41069E-05   -0.92594E-06   132   0.992E-03    0.631E-03
DAV:   7    -0.101334286843E+03   -0.57178E-05   -0.19824E-06   132   0.611E-03    0.245E-03
DAV:   8    -0.101334297207E+03   -0.10363E-04   -0.16853E-06   108   0.551E-03    0.136E-03
DAV:   9    -0.101334310809E+03   -0.13602E-04   -0.12895E-06   132   0.334E-03    0.137E-03
DAV:  10    -0.101334323216E+03   -0.12407E-04   -0.43762E-07    84   0.166E-03    0.497E-04
DAV:  11    -0.101334330180E+03   -0.69646E-05   -0.31019E-07    96   0.118E-03    0.334E-04
DAV:  12    -0.101334337828E+03   -0.76477E-05   -0.20000E-07    96   0.958E-04    0.192E-04
DAV:  13    -0.101334341313E+03   -0.34852E-05   -0.86639E-08    96   0.609E-04    0.192E-04
DAV:  14    -0.101334343276E+03   -0.19633E-05   -0.16048E-08    96   0.363E-04    0.104E-04
DAV:  15    -0.101334344589E+03   -0.13125E-05   -0.12209E-08    84   0.288E-04    0.552E-05
DAV:  16    -0.101334345214E+03   -0.62515E-06    0.46244E-10   108   0.178E-04
  23 F= -.10133435E+03 E0= -.10133435E+03  d E =-.905188E-10
       N       E                     dE             d eps       ncg     rms          rms(c)
DAV:   1    -0.101332144841E+03    0.21997E-02   -0.17527E-01    96   0.127E+00    0.169E-01
DAV:   2    -0.101333525866E+03   -0.13810E-02   -0.13986E-02   120   0.407E-01    0.126E-01
DAV:   3    -0.101333458237E+03    0.67629E-04   -0.27246E-04   144   0.699E-02    0.724E-02
DAV:   4    -0.101333452952E+03    0.52850E-05   -0.22568E-04   132   0.598E-02    0.125E-02
DAV:   5    -0.101333449585E+03    0.33675E-05   -0.65795E-05   132   0.295E-02    0.942E-03
DAV:   6    -0.101333449227E+03    0.35787E-06   -0.97807E-06   132   0.918E-03
  24 F= -.10133345E+03 E0= -.10133345E+03  d E =-.522072E-11
       N       E                     dE             d eps       ncg     rms          rms(c)
DAV:   1    -0.101331150901E+03    0.22987E-02   -0.35606E-01    96   0.182E+00    0.249E-01
DAV:   2    -0.101333752748E+03   -0.26018E-02   -0.26127E-02   144   0.588E-01    0.178E-01
DAV:   3    -0.101333658014E+03    0.94734E-04   -0.59435E-04   156   0.106E-01    0.973E-02
DAV:   4    -0.101333670313E+03   -0.12299E-04   -0.37821E-04   120   0.767E-02    0.165E-02
DAV:   5    -0.101333663224E+03    0.70895E-05   -0.85219E-05   132   0.343E-02    0.117E-02
DAV:   6    -0.101333667085E+03   -0.38610E-05   -0.13671E-05   132   0.107E-02    0.745E-03
DAV:   7    -0.101333688376E+03   -0.21291E-04   -0.23146E-06   120   0.515E-03    0.307E-03
DAV:   8    -0.101333714432E+03   -0.26056E-04   -0.34958E-06   120   0.543E-03    0.142E-03
DAV:   9    -0.101333734265E+03   -0.19833E-04   -0.24286E-06   132   0.384E-03    0.184E-03
DAV:  10    -0.101333750402E+03   -0.16137E-04   -0.13336E-06    96   0.295E-03    0.535E-04
DAV:  11    -0.101333755244E+03   -0.48416E-05   -0.25345E-07   108   0.134E-03    0.310E-04
DAV:  12    -0.101333761300E+03   -0.60559E-05   -0.32695E-07    84   0.115E-03    0.210E-04
DAV:  13    -0.101333762794E+03   -0.14940E-05   -0.60372E-08    96   0.504E-04    0.251E-04
DAV:  14    -0.101333764380E+03   -0.15857E-05   -0.28774E-08    84   0.419E-04    0.103E-04
DAV:  15    -0.101333764993E+03   -0.61344E-06   -0.10638E-08    96   0.294E-04
  25 F= -.10133376E+03 E0= -.10133376E+03  d E =-.542841E-11
       N       E                     dE             d eps       ncg     rms          rms(c)
DAV:   1    -0.101333563523E+03    0.20086E-03   -0.17065E-01    96   0.131E+00    0.159E-01
DAV:   2    -0.101334942912E+03   -0.13794E-02   -0.13903E-02   108   0.411E-01    0.114E-01
DAV:   3    -0.101334904359E+03    0.38553E-04   -0.27645E-04   156   0.687E-02    0.677E-02
DAV:   4    -0.101334898745E+03    0.56144E-05   -0.18281E-04   120   0.552E-02    0.113E-02
DAV:   5    -0.101334894984E+03    0.37607E-05   -0.56329E-05   132   0.276E-02    0.850E-03
DAV:   6    -0.101334893902E+03    0.10822E-05   -0.59963E-06   132   0.771E-03    0.579E-03
DAV:   7    -0.101334901468E+03   -0.75657E-05   -0.19991E-06   108   0.522E-03    0.219E-03
DAV:   8    -0.101334914826E+03   -0.13358E-04   -0.15404E-06   120   0.461E-03    0.126E-03
DAV:   9    -0.101334925677E+03   -0.10852E-04   -0.64594E-07   108   0.276E-03    0.118E-03
DAV:  10    -0.101334936738E+03   -0.11061E-04   -0.64205E-07    84   0.182E-03    0.447E-04
DAV:  11    -0.101334942624E+03   -0.58862E-05   -0.26666E-07    96   0.106E-03    0.235E-04
DAV:  12    -0.101334947305E+03   -0.46805E-05   -0.14213E-07    84   0.822E-04    0.105E-04
DAV:  13    -0.101334949271E+03   -0.19658E-05   -0.53184E-08    96   0.494E-04    0.953E-05
DAV:  14    -0.101334950552E+03   -0.12809E-05   -0.14511E-08    84   0.319E-04    0.761E-05
DAV:  15    -0.101334951024E+03   -0.47260E-06   -0.12400E-09   108   0.195E-04
  26 F= -.10133495E+03 E0= -.10133495E+03  d E =-.813889E-10
       N       E                     dE             d eps       ncg     rms          rms(c)
DAV:   1    -0.101332892329E+03    0.20582E-02   -0.33918E-01    96   0.177E+00    0.208E-01
DAV:   2    -0.101334872216E+03   -0.19799E-02   -0.20065E-02   108   0.478E-01    0.133E-01
DAV:   3    -0.101334843489E+03    0.28728E-04   -0.48183E-04   132   0.882E-02    0.694E-02
DAV:   4    -0.101334854686E+03   -0.11197E-04   -0.20488E-04   120   0.592E-02    0.141E-02
DAV:   5    -0.101334848195E+03    0.64905E-05   -0.53561E-05   132   0.274E-02    0.102E-02
DAV:   6    -0.101334848016E+03    0.17915E-06   -0.84230E-06   132   0.919E-03
  27 F= -.10133485E+03 E0= -.10133485E+03  d E =-.102603E-10
       N       E                     dE             d eps       ncg     rms          rms(c)
DAV:   1    -0.101333408282E+03    0.14399E-02   -0.16930E-01    96   0.121E+00    0.134E-01
DAV:   2    -0.101334181375E+03   -0.77309E-03   -0.77103E-03   132   0.289E-01    0.777E-02
DAV:   3    -0.101334206864E+03   -0.25489E-04   -0.22162E-04   120   0.574E-02    0.384E-02
DAV:   4    -0.101334229517E+03   -0.22653E-04   -0.54310E-05   108   0.323E-02    0.827E-03
DAV:   5    -0.101334233085E+03   -0.35675E-05   -0.14710E-05   132   0.141E-02    0.601E-03
DAV:   6    -0.101334236356E+03   -0.32706E-05   -0.24187E-06   120   0.495E-03    0.348E-03
DAV:   7    -0.101334241920E+03   -0.55644E-05   -0.32240E-07   108   0.228E-03    0.131E-03
DAV:   8    -0.101334248062E+03   -0.61422E-05   -0.45327E-07   108   0.236E-03    0.778E-04
DAV:   9    -0.101334256111E+03   -0.80488E-05   -0.42360E-07    84   0.227E-03    0.353E-04
DAV:  10    -0.101334259407E+03   -0.32965E-05   -0.19739E-07   108   0.135E-03    0.363E-04
DAV:  11    -0.101334260563E+03   -0.11556E-05   -0.17856E-08   120   0.586E-04    0.276E-04
DAV:  12    -0.101334263645E+03   -0.30815E-05   -0.65686E-08    84   0.664E-04    0.110E-04
DAV:  13    -0.101334264908E+03   -0.12632E-05   -0.25084E-08    96   0.381E-04    0.165E-04
DAV:  14    -0.101334265760E+03   -0.85214E-06   -0.29905E-09   108   0.272E-04
  28 F= -.10133427E+03 E0= -.10133427E+03  d E =-.425702E-11
       N       E                     dE             d eps       ncg     rms          rms(c)
DAV:   1    -0.101331872874E+03    0.23920E-02   -0.34405E-01    96   0.181E+00    0.220E-01
DAV:   2    -0.101334253423E+03   -0.23805E-02   -0.24053E-02   132   0.545E-01    0.161E-01
DAV:   3    -0.101334176104E+03    0.77319E-04   -0.48914E-04   144   0.911E-02    0.966E-02
DAV:   4    -0.101334162925E+03    0.13180E-04   -0.30428E-04   132   0.723E-02    0.146E-02
DAV:   5    -0.101334159974E+03    0.29506E-05   -0.87384E-05   132   0.350E-02    0.122E-02
DAV:   6    -0.101334163273E+03   -0.32989E-05   -0.12765E-05   132   0.121E-02    0.821E-03
DAV:   7    -0.101334183002E+03   -0.19729E-04   -0.44015E-06   132   0.749E-03    0.325E-03
DAV:   8    -0.101334209401E+03   -0.26399E-04   -0.24569E-06   132   0.513E-03    0.120E-03
DAV:   9    -0.101334233608E+03   -0.24207E-04   -0.24201E-06   108   0.396E-03    0.160E-03
DAV:  10    -0.101334252299E+03   -0.18691E-04   -0.16491E-06   108   0.298E-03    0.617E-04
DAV:  11    -0.101334260162E+03   -0.78634E-05   -0.41793E-07   108   0.153E-03    0.243E-04
DAV:  12    -0.101334264662E+03   -0.44994E-05   -0.20076E-07    84   0.941E-04    0.202E-04
DAV:  13    -0.101334267150E+03   -0.24883E-05   -0.81314E-08    96   0.616E-04    0.175E-04
DAV:  14    -0.101334268432E+03   -0.12818E-05   -0.22701E-08    84   0.384E-04    0.572E-05
DAV:  15    -0.101334268971E+03   -0.53896E-06   -0.41851E-09    96   0.221E-04
  29 F= -.10133427E+03 E0= -.10133427E+03  d E =-.440965E-11
       N       E                     dE             d eps       ncg     rms          rms(c)
DAV:   1    -0.101332672658E+03    0.15958E-02   -0.17038E-01    96   0.130E+00    0.153E-01
DAV:   2    -0.101333711943E+03   -0.10393E-02   -0.10746E-02   120   0.358E-01    0.107E-01
DAV:   3    -0.101333684655E+03    0.27287E-04   -0.23602E-04   132   0.601E-02    0.571E-02
DAV:   4    -0.101333672718E+03    0.11938E-04   -0.92594E-05   132   0.372E-02    0.957E-03
DAV:   5    -0.101333666385E+03    0.63328E-05   -0.17571E-05   132   0.163E-02    0.568E-03
DAV:   6    -0.101333667238E+03   -0.85323E-06   -0.43393E-06   132   0.706E-03
  30 F= -.10133367E+03 E0= -.10133367E+03  d E =-.488231E-11
       N       E                     dE             d eps       ncg     rms          rms(c)
DAV:   1    -0.101331651374E+03    0.20150E-02   -0.35510E-01    96   0.184E+00    0.237E-01
DAV:   2    -0.101333904500E+03   -0.22531E-02   -0.22638E-02   144   0.552E-01    0.167E-01
DAV:   3    -0.101333861184E+03    0.43316E-04   -0.53562E-04   144   0.990E-02    0.876E-02
DAV:   4    -0.101333850398E+03    0.10786E-04   -0.28799E-04   120   0.650E-02    0.156E-02
DAV:   5    -0.101333841186E+03    0.92124E-05   -0.52802E-05   132   0.274E-02    0.106E-02
DAV:   6    -0.101333846629E+03   -0.54432E-05   -0.14994E-05   120   0.117E-02    0.610E-03
DAV:   7    -0.101333869262E+03   -0.22633E-04   -0.25906E-06   120   0.589E-03    0.246E-03
DAV:   8    -0.101333896233E+03   -0.26971E-04   -0.27113E-06   120   0.493E-03    0.114E-03
DAV:   9    -0.101333921059E+03   -0.24826E-04   -0.30138E-06   132   0.424E-03    0.139E-03
DAV:  10    -0.101333939513E+03   -0.18454E-04   -0.16123E-06    96   0.309E-03    0.396E-04
DAV:  11    -0.101333945201E+03   -0.56881E-05   -0.27146E-07   108   0.129E-03    0.289E-04
DAV:  12    -0.101333950463E+03   -0.52622E-05   -0.26538E-07    84   0.104E-03    0.217E-04
DAV:  13    -0.101333952034E+03   -0.15708E-05   -0.48016E-08   108   0.489E-04    0.142E-04
DAV:  14    -0.101333953388E+03   -0.13536E-05   -0.24210E-08    84   0.404E-04    0.506E-05
DAV:  15    -0.101333953916E+03   -0.52784E-06   -0.40694E-09    96   0.232E-04
  31 F= -.10133395E+03 E0= -.10133395E+03  d E =-.536792E-11
       N       E                     dE             d eps       ncg     rms          rms(c)
DAV:   1    -0.101332860206E+03    0.10932E-02   -0.18618E-01    96   0.137E+00    0.165E-01
DAV:   2    -0.101334226918E+03   -0.13667E-02   -0.14994E-02   108   0.422E-01    0.110E-01
DAV:   3    -0.101334175823E+03    0.51095E-04   -0.26659E-04   156   0.644E-02    0.650E-02
DAV:   4    -0.101334152421E+03    0.23402E-04   -0.13892E-04   132   0.470E-02    0.102E-02
DAV:   5    -0.101334144850E+03    0.75712E-05   -0.35574E-05   132   0.222E-02    0.710E-03
DAV:   6    -0.101334142856E+03    0.19935E-05   -0.51763E-06   132   0.757E-03    0.473E-03
DAV:   7    -0.101334151300E+03   -0.84441E-05   -0.21005E-06    96   0.543E-03    0.176E-03
DAV:   8    -0.101334167403E+03   -0.16103E-04   -0.17498E-06   108   0.466E-03    0.148E-03
DAV:   9    -0.101334181546E+03   -0.14143E-04   -0.70654E-07    96   0.278E-03    0.999E-04
DAV:  10    -0.101334193775E+03   -0.12229E-04   -0.63909E-07    84   0.179E-03    0.335E-04
DAV:  11    -0.101334199957E+03   -0.61821E-05   -0.17703E-07    96   0.917E-04    0.246E-04
DAV:  12    -0.101334204888E+03   -0.49304E-05   -0.96608E-08    84   0.711E-04    0.113E-04
DAV:  13    -0.101334207324E+03   -0.24362E-05   -0.45573E-08    96   0.468E-04    0.908E-05
DAV:  14    -0.101334209119E+03   -0.17948E-05   -0.18834E-08    84   0.337E-04    0.562E-05
DAV:  15    -0.101334209647E+03   -0.52881E-06   -0.91164E-10   108   0.197E-04
  32 F= -.10133421E+03 E0= -.10133421E+03  d E =-.459887E-11
       N       E                     dE             d eps       ncg     rms          rms(c)
DAV:   1    -0.101332898496E+03    0.13106E-02   -0.41027E-01    96   0.185E+00    0.216E-01
DAV:   2    -0.101334369311E+03   -0.14708E-02   -0.18180E-02   108   0.437E-01    0.123E-01
DAV:   3    -0.101334263541E+03    0.10577E-03   -0.32453E-04   132   0.632E-02    0.640E-02
DAV:   4    -0.101334206196E+03    0.57346E-04   -0.12362E-04   108   0.430E-02    0.112E-02
DAV:   5    -0.101334202388E+03    0.38073E-05   -0.29425E-05   132   0.200E-02    0.728E-03
DAV:   6    -0.101334215173E+03   -0.12785E-04   -0.99313E-06   108   0.892E-03    0.427E-03
DAV:   7    -0.101334238434E+03   -0.23261E-04   -0.14950E-06   108   0.390E-03    0.220E-03
DAV:   8    -0.101334275849E+03   -0.37415E-04   -0.41974E-06   108   0.464E-03    0.127E-03
DAV:   9    -0.101334296331E+03   -0.20482E-04   -0.14672E-06   108   0.288E-03    0.880E-04
DAV:  10    -0.101334316432E+03   -0.20101E-04   -0.17253E-06    96   0.267E-03    0.366E-04
DAV:  11    -0.101334323117E+03   -0.66850E-05   -0.23265E-07    96   0.120E-03    0.339E-04
DAV:  12    -0.101334329847E+03   -0.67299E-05   -0.32952E-07    84   0.119E-03    0.167E-04
DAV:  13    -0.101334331358E+03   -0.15113E-05   -0.56095E-08    96   0.518E-04    0.145E-04
DAV:  14    -0.101334332708E+03   -0.13499E-05   -0.13786E-08    84   0.356E-04    0.497E-05
DAV:  15    -0.101334333353E+03   -0.64479E-06   -0.62617E-09    96   0.248E-04
  33 F= -.10133433E+03 E0= -.10133433E+03  d E =-.467163E-11
       N       E                     dE             d eps       ncg     rms          rms(c)
DAV:   1    -0.101334041409E+03    0.29130E-03   -0.20448E-01   108   0.127E+00    0.146E-01
DAV:   2    -0.101334851245E+03   -0.80984E-03   -0.99172E-03   108   0.322E-01    0.936E-02
DAV:   3    -0.101334786525E+03    0.64720E-04   -0.14682E-04   132   0.437E-02    0.502E-02
DAV:   4    -0.101334750745E+03    0.35780E-04   -0.77069E-05   108   0.325E-02    0.789E-03
DAV:   5    -0.101334745611E+03    0.51340E-05   -0.16962E-05   132   0.148E-02    0.544E-03
DAV:   6    -0.101334751073E+03   -0.54621E-05   -0.59858E-06   132   0.645E-03    0.291E-03
DAV:   7    -0.101334764211E+03   -0.13138E-04   -0.65592E-07    84   0.249E-03    0.150E-03
DAV:   8    -0.101334787302E+03   -0.23090E-04   -0.26146E-06    96   0.338E-03    0.979E-04
DAV:   9    -0.101334802066E+03   -0.14765E-04   -0.85314E-07    96   0.212E-03    0.586E-04
DAV:  10    -0.101334813892E+03   -0.11826E-04   -0.97993E-07    96   0.183E-03    0.286E-04
DAV:  11    -0.101334819681E+03   -0.57882E-05   -0.21075E-07    96   0.106E-03    0.258E-04
DAV:  12    -0.101334821840E+03   -0.21598E-05   -0.57605E-08    84   0.561E-04    0.152E-04
DAV:  13    -0.101334823466E+03   -0.16253E-05   -0.30401E-08    96   0.406E-04    0.577E-05
DAV:  14    -0.101334824372E+03   -0.90616E-06   -0.80706E-09    84   0.273E-04
  34 F= -.10133482E+03 E0= -.10133482E+03  d E =-.499806E-11
       N       E                     dE             d eps       ncg     rms          rms(c)
DAV:   1    -0.101333034924E+03    0.17885E-02   -0.40359E-01   108   0.188E+00    0.214E-01
DAV:   2    -0.101334659105E+03   -0.16242E-02   -0.19606E-02   108   0.447E-01    0.114E-01
DAV:   3    -0.101334577765E+03    0.81341E-04   -0.34409E-04   132   0.650E-02    0.605E-02
DAV:   4    -0.101334534796E+03    0.42969E-04   -0.11285E-04   120   0.419E-02    0.118E-02
DAV:   5    -0.101334524112E+03    0.10684E-04   -0.24319E-05   132   0.190E-02    0.776E-03
DAV:   6    -0.101334525585E+03   -0.14733E-05   -0.75446E-06   120   0.884E-03    0.422E-03
DAV:   7    -0.101334536653E+03   -0.11068E-04   -0.16248E-06    96   0.497E-03    0.200E-03
DAV:   8    -0.101334556636E+03   -0.19983E-04   -0.15263E-06    96   0.408E-03    0.120E-03
DAV:   9    -0.101334573999E+03   -0.17362E-04   -0.11165E-06   108   0.291E-03    0.923E-04
DAV:  10    -0.101334588392E+03   -0.14393E-04   -0.57513E-07    84   0.190E-03    0.359E-04
DAV:  11    -0.101334596581E+03   -0.81897E-05   -0.29217E-07    96   0.115E-03    0.313E-04
DAV:  12    -0.101334603784E+03   -0.72030E-05   -0.20585E-07    84   0.934E-04    0.157E-04
DAV:  13    -0.101334606177E+03   -0.23924E-05   -0.38817E-08   108   0.457E-04    0.942E-05
DAV:  14    -0.101334607793E+03   -0.16166E-05   -0.14018E-08    84   0.299E-04    0.503E-05
DAV:  15    -0.101334608542E+03   -0.74822E-06   -0.19101E-09   108   0.202E-04
  35 F= -.10133461E+03 E0= -.10133461E+03  d E =-.455529E-11
       N       E                     dE             d eps       ncg     rms          rms(c)
DAV:   1    -0.101334399288E+03    0.20851E-03   -0.20278E-01    96   0.133E+00    0.144E-01
DAV:   2    -0.101335171180E+03   -0.77189E-03   -0.96391E-03   108   0.316E-01    0.846E-02
DAV:   3    -0.101335114289E+03    0.56891E-04   -0.14627E-04   132   0.414E-02    0.446E-02
DAV:   4    -0.101335071104E+03    0.43185E-04   -0.50531E-05   120   0.257E-02    0.791E-03
DAV:   5    -0.101335067815E+03    0.32891E-05   -0.75964E-06   132   0.112E-02    0.453E-03
DAV:   6    -0.101335079554E+03   -0.11739E-04   -0.53831E-06   120   0.825E-03    0.228E-03
DAV:   7    -0.101335097579E+03   -0.18026E-04   -0.26741E-06   132   0.525E-03    0.165E-03
DAV:   8    -0.101335117333E+03   -0.19754E-04   -0.12655E-06    96   0.278E-03    0.818E-04
DAV:   9    -0.101335136040E+03   -0.18707E-04   -0.17462E-06    96   0.281E-03    0.610E-04
DAV:  10    -0.101335148986E+03   -0.12946E-04   -0.11723E-06   108   0.217E-03    0.238E-04
DAV:  11    -0.101335153239E+03   -0.42529E-05   -0.17596E-07    96   0.982E-04    0.203E-04
DAV:  12    -0.101335155778E+03   -0.25388E-05   -0.93027E-08    84   0.621E-04    0.107E-04
DAV:  13    -0.101335157161E+03   -0.13837E-05   -0.38967E-08    96   0.404E-04    0.521E-05
DAV:  14    -0.101335157817E+03   -0.65592E-06   -0.50928E-09    84   0.238E-04
  36 F= -.10133516E+03 E0= -.10133516E+03  d E =-.666781E-10
       N       E                     dE             d eps       ncg     rms          rms(c)
DAV:   1    -0.101333543983E+03    0.16132E-02   -0.40858E-01    96   0.186E+00    0.184E-01
DAV:   2    -0.101335094147E+03   -0.15502E-02   -0.18843E-02   108   0.425E-01    0.101E-01
DAV:   3    -0.101335039767E+03    0.54381E-04   -0.34306E-04   132   0.620E-02    0.528E-02
DAV:   4    -0.101334995355E+03    0.44412E-04   -0.76649E-05   132   0.364E-02    0.104E-02
DAV:   5    -0.101334984983E+03    0.10372E-04   -0.20646E-05   132   0.181E-02    0.689E-03
DAV:   6    -0.101334987523E+03   -0.25401E-05   -0.56991E-06   132   0.846E-03    0.411E-03
DAV:   7    -0.101334998876E+03   -0.11353E-04   -0.17138E-06   120   0.578E-03    0.179E-03
DAV:   8    -0.101335015985E+03   -0.17109E-04   -0.12679E-06    84   0.438E-03    0.126E-03
DAV:   9    -0.101335040424E+03   -0.24439E-04   -0.20480E-06    96   0.372E-03    0.709E-04
DAV:  10    -0.101335054673E+03   -0.14249E-04   -0.69825E-07    84   0.225E-03    0.507E-04
DAV:  11    -0.101335061894E+03   -0.72211E-05   -0.24657E-07    96   0.112E-03    0.455E-04
DAV:  12    -0.101335067633E+03   -0.57384E-05   -0.12559E-07    84   0.815E-04    0.159E-04
DAV:  13    -0.101335070242E+03   -0.26098E-05   -0.42749E-08    96   0.490E-04    0.103E-04
DAV:  14    -0.101335072080E+03   -0.18376E-05   -0.23082E-08    84   0.349E-04    0.618E-05
DAV:  15    -0.101335072700E+03   -0.62035E-06   -0.80647E-12    96   0.187E-04
  37 F= -.10133507E+03 E0= -.10133507E+03  d E =-.114630E-10
       N       E                     dE             d eps       ncg     rms          rms(c)
DAV:   1    -0.101332930178E+03    0.21419E-02   -0.20040E-01    96   0.131E+00    0.147E-01
DAV:   2    -0.101334126309E+03   -0.11961E-02   -0.14442E-02   108   0.351E-01    0.848E-02
DAV:   3    -0.101334092915E+03    0.33394E-04   -0.24469E-04   144   0.485E-02    0.497E-02
DAV:   4    -0.101334058811E+03    0.34104E-04   -0.57202E-05   108   0.299E-02    0.904E-03
DAV:   5    -0.101334051576E+03    0.72344E-05   -0.14009E-05   132   0.143E-02    0.517E-03
DAV:   6    -0.101334055901E+03   -0.43248E-05   -0.41662E-06   120   0.738E-03    0.276E-03
DAV:   7    -0.101334069032E+03   -0.13131E-04   -0.21279E-06    96   0.525E-03    0.139E-03
DAV:   8    -0.101334088443E+03   -0.19411E-04   -0.13014E-06    96   0.360E-03    0.811E-04
DAV:   9    -0.101334103987E+03   -0.15544E-04   -0.10257E-06   108   0.261E-03    0.567E-04
DAV:  10    -0.101334117504E+03   -0.13516E-04   -0.90741E-07    96   0.203E-03    0.304E-04
DAV:  11    -0.101334121599E+03   -0.40954E-05   -0.11374E-07    96   0.857E-04    0.255E-04
DAV:  12    -0.101334125537E+03   -0.39383E-05   -0.13235E-07    84   0.797E-04    0.952E-05
DAV:  13    -0.101334126803E+03   -0.12659E-05   -0.29690E-08    96   0.416E-04    0.881E-05
DAV:  14    -0.101334127471E+03   -0.66807E-06   -0.16839E-09    84   0.236E-04
  38 F= -.10133413E+03 E0= -.10133413E+03  d E =-.468805E-11
       N       E                     dE             d eps       ncg     rms          rms(c)
DAV:   1    -0.101332761288E+03    0.13655E-02   -0.41064E-01    96   0.184E+00    0.215E-01
DAV:   2    -0.101334252278E+03   -0.14910E-02   -0.18451E-02   120   0.439E-01    0.125E-01
DAV:   3    -0.101334140927E+03    0.11135E-03   -0.31970E-04   132   0.631E-02    0.652E-02
DAV:   4    -0.101334084680E+03    0.56247E-04   -0.12906E-04   120   0.434E-02    0.111E-02
DAV:   5    -0.101334080284E+03    0.43960E-05   -0.30220E-05   132   0.201E-02    0.730E-03
DAV:   6    -0.101334093198E+03   -0.12914E-04   -0.10503E-05   108   0.899E-03    0.419E-03
DAV:   7    -0.101334116652E+03   -0.23454E-04   -0.14286E-06   108   0.373E-03    0.218E-03
DAV:   8    -0.101334155061E+03   -0.38408E-04   -0.43714E-06   108   0.459E-03    0.127E-03
DAV:   9    -0.101334175769E+03   -0.20709E-04   -0.13993E-06   108   0.275E-03    0.851E-04
DAV:  10    -0.101334196850E+03   -0.21081E-04   -0.18093E-06    96   0.268E-03    0.359E-04
DAV:  11    -0.101334203856E+03   -0.70054E-05   -0.23228E-07   108   0.117E-03    0.332E-04
DAV:  12    -0.101334210788E+03   -0.69323E-05   -0.33703E-07    84   0.118E-03    0.158E-04
DAV:  13    -0.101334212243E+03   -0.14552E-05   -0.48378E-08    96   0.493E-04    0.131E-04
DAV:  14    -0.101334213719E+03   -0.14751E-05   -0.16398E-08    84   0.364E-04    0.499E-05
DAV:  15    -0.101334214338E+03   -0.61904E-06   -0.49764E-09   108   0.235E-04
  39 F= -.10133421E+03 E0= -.10133421E+03  d E =-.466534E-11
       N       E                     dE             d eps       ncg     rms          rms(c)
DAV:   1    -0.101333663773E+03    0.54995E-03   -0.20303E-01   108   0.133E+00    0.152E-01
DAV:   2    -0.101334385158E+03   -0.72138E-03   -0.88976E-03   108   0.304E-01    0.768E-02
DAV:   3    -0.101334343478E+03    0.41680E-04   -0.15099E-04   132   0.421E-02    0.399E-02
DAV:   4    -0.101334315321E+03    0.28157E-04   -0.42078E-05   108   0.252E-02    0.771E-03
DAV:   5    -0.101334308907E+03    0.64141E-05   -0.89540E-06   132   0.121E-02    0.468E-03
DAV:   6    -0.101334310206E+03   -0.12991E-05   -0.32689E-06   108   0.640E-03    0.260E-03
DAV:   7    -0.101334317466E+03   -0.72592E-05   -0.89847E-07    96   0.421E-03    0.126E-03
DAV:   8    -0.101334329621E+03   -0.12156E-04   -0.11067E-06    96   0.349E-03    0.941E-04
DAV:   9    -0.101334343606E+03   -0.13985E-04   -0.82655E-07    84   0.250E-03    0.434E-04
DAV:  10    -0.101334350590E+03   -0.69840E-05   -0.30965E-07    96   0.132E-03    0.343E-04
DAV:  11    -0.101334357338E+03   -0.67478E-05   -0.17682E-07    84   0.903E-04    0.161E-04
DAV:  12    -0.101334360207E+03   -0.28691E-05   -0.58013E-08    96   0.519E-04    0.108E-04
DAV:  13    -0.101334362744E+03   -0.25369E-05   -0.41154E-08    84   0.409E-04    0.566E-05
DAV:  14    -0.101334363679E+03   -0.93509E-06   -0.55843E-09    96   0.230E-04
  40 F= -.10133436E+03 E0= -.10133436E+03  d E =-.642037E-11
       N       E                     dE             d eps       ncg     rms          rms(c)
DAV:   1    -0.101333127313E+03    0.12354E-02   -0.40387E-01   108   0.186E+00    0.214E-01
DAV:   2    -0.101334699261E+03   -0.15719E-02   -0.19349E-02   108   0.454E-01    0.119E-01
DAV:   3    -0.101334596472E+03    0.10279E-03   -0.30795E-04   132   0.606E-02    0.640E-02
DAV:   4    -0.101334523401E+03    0.73071E-04   -0.10743E-04   108   0.383E-02    0.119E-02
DAV:   5    -0.101334518294E+03    0.51074E-05   -0.18001E-05   132   0.168E-02    0.716E-03
DAV:   6    -0.101334535349E+03   -0.17055E-04   -0.89681E-06   108   0.105E-02    0.353E-03
DAV:   7    -0.101334564613E+03   -0.29263E-04   -0.47488E-06   120   0.711E-03    0.221E-03
DAV:   8    -0.101334600141E+03   -0.35529E-04   -0.29486E-06    96   0.451E-03    0.115E-03
DAV:   9    -0.101334626729E+03   -0.26588E-04   -0.24590E-06   108   0.362E-03    0.845E-04
DAV:  10    -0.101334647585E+03   -0.20855E-04   -0.18775E-06    96   0.282E-03    0.376E-04
DAV:  11    -0.101334655240E+03   -0.76552E-05   -0.36046E-07   108   0.138E-03    0.257E-04
DAV:  12    -0.101334660425E+03   -0.51853E-05   -0.24996E-07    84   0.994E-04    0.144E-04
DAV:  13    -0.101334662158E+03   -0.17334E-05   -0.54147E-08    96   0.506E-04    0.725E-05
DAV:  14    -0.101334663180E+03   -0.10213E-05   -0.11980E-08    84   0.318E-04    0.460E-05
DAV:  15    -0.101334663560E+03   -0.37972E-06    0.35570E-10   108   0.175E-04
  41 F= -.10133466E+03 E0= -.10133466E+03  d E =-.826869E-10
       N       E                     dE             d eps       ncg     rms          rms(c)
DAV:   1    -0.101334640009E+03    0.23171E-04   -0.20302E-01    96   0.130E+00    0.147E-01
DAV:   2    -0.101335429364E+03   -0.78936E-03   -0.94088E-03   108   0.305E-01    0.711E-02
DAV:   3    -0.101335402276E+03    0.27088E-04   -0.17490E-04   132   0.466E-02    0.380E-02
DAV:   4    -0.101335388891E+03    0.13385E-04   -0.48051E-05   120   0.300E-02    0.838E-03
DAV:   5    -0.101335385674E+03    0.32178E-05   -0.14179E-05   132   0.142E-02    0.586E-03
DAV:   6    -0.101335385982E+03   -0.30816E-06   -0.24357E-06   132   0.514E-03
  42 F= -.10133539E+03 E0= -.10133539E+03  d E =-.887870E-10
       N       E                     dE             d eps       ncg     rms          rms(c)
DAV:   1    -0.101333879319E+03    0.15064E-02   -0.41012E-01    96   0.185E+00    0.185E-01
DAV:   2    -0.101335421415E+03   -0.15421E-02   -0.18370E-02   132   0.405E-01    0.930E-02
DAV:   3    -0.101335393968E+03    0.27448E-04   -0.36926E-04   120   0.654E-02    0.488E-02
DAV:   4    -0.101335377848E+03    0.16119E-04   -0.66528E-05   120   0.375E-02    0.109E-02
DAV:   5    -0.101335373864E+03    0.39843E-05   -0.24718E-05   132   0.194E-02    0.743E-03
DAV:   6    -0.101335376180E+03   -0.23162E-05   -0.40061E-06   132   0.678E-03    0.504E-03
DAV:   7    -0.101335383673E+03   -0.74927E-05   -0.95586E-07   108   0.429E-03    0.176E-03
DAV:   8    -0.101335393346E+03   -0.96735E-05   -0.12763E-06   108   0.392E-03    0.133E-03
DAV:   9    -0.101335409598E+03   -0.16251E-04   -0.10424E-06    84   0.338E-03    0.604E-04
DAV:  10    -0.101335416575E+03   -0.69775E-05   -0.52676E-07    96   0.199E-03    0.656E-04
DAV:  11    -0.101335420547E+03   -0.39717E-05   -0.76827E-08   108   0.945E-04    0.407E-04
DAV:  12    -0.101335426837E+03   -0.62903E-05   -0.23115E-07    84   0.104E-03    0.254E-04
DAV:  13    -0.101335428391E+03   -0.15538E-05   -0.29824E-08   108   0.448E-04    0.222E-04
DAV:  14    -0.101335430521E+03   -0.21298E-05   -0.39678E-08    84   0.443E-04    0.644E-05
DAV:  15    -0.101335431215E+03   -0.69461E-06   -0.55080E-09    96   0.233E-04
  43 F= -.10133543E+03 E0= -.10133543E+03  d E =-.118729E-10
       N       E                     dE             d eps       ncg     rms          rms(c)
DAV:   1    -0.101333657970E+03    0.17726E-02   -0.19717E-01    96   0.134E+00    0.150E-01
DAV:   2    -0.101334750808E+03   -0.10928E-02   -0.13011E-02   120   0.323E-01    0.795E-02
DAV:   3    -0.101334708341E+03    0.42467E-04   -0.25547E-04   144   0.534E-02    0.439E-02
DAV:   4    -0.101334679947E+03    0.28394E-04   -0.56511E-05   108   0.304E-02    0.988E-03
DAV:   5    -0.101334671813E+03    0.81340E-05   -0.15913E-05   132   0.154E-02    0.570E-03
DAV:   6    -0.101334674356E+03   -0.25425E-05   -0.30277E-06   108   0.610E-03    0.363E-03
DAV:   7    -0.101334684714E+03   -0.10358E-04   -0.11720E-06   108   0.380E-03    0.124E-03
DAV:   8    -0.101334695708E+03   -0.10994E-04   -0.82043E-07    96   0.290E-03    0.958E-04
DAV:   9    -0.101334712202E+03   -0.16494E-04   -0.13104E-06   108   0.281E-03    0.403E-04
DAV:  10    -0.101334718975E+03   -0.67739E-05   -0.39509E-07   108   0.164E-03    0.365E-04
DAV:  11    -0.101334723635E+03   -0.46599E-05   -0.18704E-07    84   0.991E-04    0.186E-04
DAV:  12    -0.101334726837E+03   -0.32016E-05   -0.13078E-07    96   0.734E-04    0.130E-04
DAV:  13    -0.101334728313E+03   -0.14760E-05   -0.36450E-08    84   0.421E-04    0.771E-05
DAV:  14    -0.101334729130E+03   -0.81695E-06   -0.13569E-08    96   0.275E-04
  44 F= -.10133473E+03 E0= -.10133473E+03  d E =-.485937E-11
       N       E                     dE             d eps       ncg     rms          rms(c)
DAV:   1    -0.101332915950E+03    0.18124E-02   -0.38966E-01    96   0.167E+00    0.216E-01
DAV:   2    -0.101334457171E+03   -0.15412E-02   -0.18868E-02   144   0.375E-01    0.123E-01
DAV:   3    -0.101334321560E+03    0.13561E-03   -0.34849E-04   132   0.670E-02    0.623E-02
DAV:   4    -0.101334279564E+03    0.41996E-04   -0.14339E-04   132   0.425E-02    0.126E-02
DAV:   5    -0.101334268001E+03    0.11563E-04   -0.22539E-05   120   0.176E-02    0.730E-03
DAV:   6    -0.101334271161E+03   -0.31602E-05   -0.66967E-06   132   0.734E-03    0.392E-03
DAV:   7    -0.101334285374E+03   -0.14212E-04   -0.15899E-06   108   0.384E-03    0.166E-03
DAV:   8    -0.101334304881E+03   -0.19508E-04   -0.10750E-06   108   0.266E-03    0.109E-03
DAV:   9    -0.101334324819E+03   -0.19938E-04   -0.10187E-06   108   0.210E-03    0.653E-04
DAV:  10    -0.101334341473E+03   -0.16654E-04   -0.92628E-07   120   0.179E-03    0.376E-04
DAV:  11    -0.101334347202E+03   -0.57293E-05   -0.85696E-08   108   0.801E-04    0.201E-04
DAV:  12    -0.101334353605E+03   -0.64026E-05   -0.19817E-07    96   0.869E-04    0.126E-04
DAV:  13    -0.101334355431E+03   -0.18257E-05   -0.19147E-08   108   0.369E-04    0.773E-05
DAV:  14    -0.101334356949E+03   -0.15185E-05   -0.12480E-08    84   0.291E-04    0.469E-05
DAV:  15    -0.101334357415E+03   -0.46598E-06    0.19992E-09   108   0.146E-04
  45 F= -.10133436E+03 E0= -.10133436E+03  d E =-.839352E-10
       N       E                     dE             d eps       ncg     rms          rms(c)
DAV:   1    -0.101334883472E+03   -0.52652E-03   -0.20045E-01   108   0.123E+00    0.160E-01
DAV:   2    -0.101335616606E+03   -0.73313E-03   -0.89595E-03   108   0.275E-01    0.799E-02
DAV:   3    -0.101335557794E+03    0.58812E-04   -0.18090E-04   132   0.480E-02    0.413E-02
DAV:   4    -0.101335535892E+03    0.21902E-04   -0.63945E-05   108   0.299E-02    0.888E-03
DAV:   5    -0.101335531026E+03    0.48663E-05   -0.11608E-05   132   0.132E-02    0.523E-03
DAV:   6    -0.101335533942E+03   -0.29160E-05   -0.29278E-06   108   0.543E-03    0.277E-03
DAV:   7    -0.101335542306E+03   -0.83647E-05   -0.71076E-07   108   0.267E-03    0.112E-03
DAV:   8    -0.101335551809E+03   -0.95026E-05   -0.60385E-07    96   0.207E-03    0.697E-04
DAV:   9    -0.101335561949E+03   -0.10140E-04   -0.67292E-07   108   0.184E-03    0.427E-04
DAV:  10    -0.101335570278E+03   -0.83296E-05   -0.68885E-07    96   0.162E-03    0.248E-04
DAV:  11    -0.101335572211E+03   -0.19328E-05   -0.36726E-08   108   0.626E-04    0.158E-04
DAV:  12    -0.101335574888E+03   -0.26771E-05   -0.10060E-07    84   0.658E-04    0.851E-05
DAV:  13    -0.101335575811E+03   -0.92270E-06   -0.21564E-08    96   0.329E-04
  46 F= -.10133558E+03 E0= -.10133558E+03  d E =-.469348E-11
       N       E                     dE             d eps       ncg     rms          rms(c)
DAV:   1    -0.101334422802E+03    0.11521E-02   -0.41009E-01   120   0.172E+00    0.226E-01
DAV:   2    -0.101335600467E+03   -0.11777E-02   -0.14428E-02   132   0.350E-01    0.892E-02
DAV:   3    -0.101335530914E+03    0.69553E-04   -0.37211E-04   132   0.659E-02    0.465E-02
DAV:   4    -0.101335513619E+03    0.17295E-04   -0.86734E-05   132   0.372E-02    0.136E-02
DAV:   5    -0.101335510608E+03    0.30118E-05   -0.20761E-05   132   0.183E-02    0.790E-03
DAV:   6    -0.101335511216E+03   -0.60843E-06   -0.41271E-06   132   0.734E-03
  47 F= -.10133551E+03 E0= -.10133551E+03  d E =-.591957E-11
       N       E                     dE             d eps       ncg     rms          rms(c)
DAV:   1    -0.101334770030E+03    0.74058E-03   -0.20487E-01    96   0.123E+00    0.157E-01
DAV:   2    -0.101335390343E+03   -0.62031E-03   -0.75098E-03   132   0.252E-01    0.643E-02
DAV:   3    -0.101335363451E+03    0.26893E-04   -0.19804E-04   132   0.475E-02    0.332E-02
DAV:   4    -0.101335363375E+03    0.75881E-07   -0.44298E-05   108   0.260E-02    0.976E-03
DAV:   5    -0.101335363985E+03   -0.61013E-06   -0.90350E-06   132   0.120E-02
  48 F= -.10133536E+03 E0= -.10133536E+03  d E =-.550961E-11
       N       E                     dE             d eps       ncg     rms          rms(c)
DAV:   1    -0.101334090428E+03    0.12729E-02   -0.40309E-01    96   0.169E+00    0.219E-01
DAV:   2    -0.101335454491E+03   -0.13641E-02   -0.16441E-02   132   0.357E-01    0.983E-02
DAV:   3    -0.101335381612E+03    0.72879E-04   -0.38231E-04   120   0.671E-02    0.508E-02
DAV:   4    -0.101335365966E+03    0.15646E-04   -0.11036E-04   120   0.394E-02    0.133E-02
DAV:   5    -0.101335358589E+03    0.73771E-05   -0.20885E-05   132   0.175E-02    0.752E-03
DAV:   6    -0.101335358757E+03   -0.16811E-06   -0.42734E-06   120   0.689E-03
  49 F= -.10133536E+03 E0= -.10133536E+03  d E =-.535422E-11
       N       E                     dE             d eps       ncg     rms          rms(c)
DAV:   1    -0.101334046151E+03    0.13124E-02   -0.20220E-01    96   0.131E+00    0.166E-01
DAV:   2    -0.101335087374E+03   -0.10412E-02   -0.12279E-02   120   0.318E-01    0.735E-02
DAV:   3    -0.101335046344E+03    0.41030E-04   -0.28098E-04   144   0.581E-02    0.401E-02
DAV:   4    -0.101335039321E+03    0.70235E-05   -0.69912E-05   108   0.319E-02    0.110E-02
DAV:   5    -0.101335037437E+03    0.18834E-05   -0.14849E-05   120   0.150E-02    0.637E-03
DAV:   6    -0.101335037652E+03   -0.21505E-06   -0.24789E-06   132   0.588E-03
  50 F= -.10133504E+03 E0= -.10133504E+03  d E =-.621912E-11
       N       E                     dE             d eps       ncg     rms          rms(c)
DAV:   1    -0.101333847873E+03    0.11896E-02   -0.41173E-01    96   0.178E+00    0.222E-01
DAV:   2    -0.101335289942E+03   -0.14421E-02   -0.17213E-02   132   0.408E-01    0.102E-01
DAV:   3    -0.101335214082E+03    0.75859E-04   -0.35867E-04   108   0.674E-02    0.529E-02
DAV:   4    -0.101335186394E+03    0.27688E-04   -0.12111E-04   132   0.421E-02    0.132E-02
DAV:   5    -0.101335178356E+03    0.80382E-05   -0.21999E-05   120   0.182E-02    0.761E-03
DAV:   6    -0.101335178860E+03   -0.50363E-06   -0.47092E-06   132   0.757E-03
  51 F= -.10133518E+03 E0= -.10133518E+03  d E =-.578460E-11
       N       E                     dE             d eps       ncg     rms          rms(c)
DAV:   1    -0.101334281105E+03    0.89725E-03   -0.20832E-01   120   0.128E+00    0.160E-01
DAV:   2    -0.101334907562E+03   -0.62646E-03   -0.75737E-03   132   0.263E-01    0.628E-02
DAV:   3    -0.101334880778E+03    0.26784E-04   -0.17719E-04   108   0.457E-02    0.328E-02
DAV:   4    -0.101334880189E+03    0.58904E-06   -0.43202E-05   120   0.256E-02    0.982E-03
DAV:   5    -0.101334882409E+03   -0.22199E-05   -0.90292E-06   132   0.118E-02    0.501E-03
DAV:   6    -0.101334885480E+03   -0.30708E-05   -0.19615E-06   108   0.494E-03    0.257E-03
DAV:   7    -0.101334890097E+03   -0.46174E-05   -0.33233E-07    96   0.213E-03    0.891E-04
DAV:   8    -0.101334894428E+03   -0.43305E-05   -0.24845E-07    84   0.159E-03    0.496E-04
DAV:   9    -0.101334900533E+03   -0.61053E-05   -0.42005E-07    96   0.188E-03    0.298E-04
DAV:  10    -0.101334903731E+03   -0.31976E-05   -0.23448E-07    84   0.122E-03    0.206E-04
DAV:  11    -0.101334905059E+03   -0.13286E-05   -0.31759E-08   108   0.573E-04    0.173E-04
DAV:  12    -0.101334906636E+03   -0.15769E-05   -0.34934E-08    84   0.488E-04    0.703E-05
DAV:  13    -0.101334907503E+03   -0.86653E-06   -0.19007E-08    96   0.326E-04
  52 F= -.10133491E+03 E0= -.10133491E+03  d E =-.459306E-11
       N       E                     dE             d eps       ncg     rms          rms(c)
DAV:   1    -0.101333011807E+03    0.18948E-02   -0.39748E-01    96   0.179E+00    0.213E-01
DAV:   2    -0.101334543253E+03   -0.15314E-02   -0.18633E-02   108   0.417E-01    0.118E-01
DAV:   3    -0.101334417102E+03    0.12615E-03   -0.32199E-04   132   0.659E-02    0.610E-02
DAV:   4    -0.101334370954E+03    0.46148E-04   -0.14863E-04   120   0.455E-02    0.126E-02
DAV:   5    -0.101334360635E+03    0.10320E-04   -0.26107E-05   132   0.192E-02    0.771E-03
DAV:   6    -0.101334362842E+03   -0.22079E-05   -0.65141E-06   120   0.798E-03    0.410E-03
DAV:   7    -0.101334375406E+03   -0.12563E-04   -0.15931E-06   108   0.426E-03    0.171E-03
DAV:   8    -0.101334393087E+03   -0.17682E-04   -0.10040E-06   108   0.290E-03    0.110E-03
DAV:   9    -0.101334411415E+03   -0.18328E-04   -0.95459E-07    96   0.222E-03    0.747E-04
DAV:  10    -0.101334428386E+03   -0.16970E-04   -0.10003E-06   108   0.194E-03    0.384E-04
DAV:  11    -0.101334433552E+03   -0.51665E-05   -0.80611E-08   108   0.813E-04    0.248E-04
DAV:  12    -0.101334440657E+03   -0.71041E-05   -0.22093E-07    84   0.966E-04    0.137E-04
DAV:  13    -0.101334442501E+03   -0.18447E-05   -0.28395E-08   108   0.425E-04    0.101E-04
DAV:  14    -0.101334444096E+03   -0.15946E-05   -0.99982E-09    84   0.311E-04    0.434E-05
DAV:  15    -0.101334444822E+03   -0.72560E-06   -0.33033E-09    96   0.205E-04
  53 F= -.10133444E+03 E0= -.10133444E+03  d E =-.478078E-11
       N       E                     dE             d eps       ncg     rms          rms(c)
DAV:   1    -0.101335070948E+03   -0.62685E-03   -0.20500E-01    96   0.128E+00    0.151E-01
DAV:   2    -0.101335776274E+03   -0.70533E-03   -0.84450E-03   132   0.286E-01    0.710E-02
DAV:   3    -0.101335733562E+03    0.42712E-04   -0.16058E-04   132   0.455E-02    0.372E-02
DAV:   4    -0.101335716605E+03    0.16957E-04   -0.54085E-05   108   0.287E-02    0.854E-03
DAV:   5    -0.101335712981E+03    0.36241E-05   -0.10615E-05   120   0.126E-02    0.535E-03
DAV:   6    -0.101335714126E+03   -0.11448E-05   -0.24211E-06   132   0.564E-03    0.270E-03
DAV:   7    -0.101335719026E+03   -0.48997E-05   -0.60863E-07    84   0.296E-03    0.107E-03
DAV:   8    -0.101335725625E+03   -0.65995E-05   -0.45207E-07    96   0.213E-03    0.630E-04
DAV:   9    -0.101335733859E+03   -0.82336E-05   -0.55858E-07    84   0.192E-03    0.362E-04
DAV:  10    -0.101335739676E+03   -0.58177E-05   -0.42222E-07    96   0.146E-03    0.212E-04
DAV:  11    -0.101335742054E+03   -0.23781E-05   -0.73552E-08    84   0.742E-04    0.154E-04
DAV:  12    -0.101335744055E+03   -0.20003E-05   -0.61979E-08    96   0.577E-04    0.770E-05
DAV:  13    -0.101335744804E+03   -0.74894E-06   -0.13748E-08    84   0.301E-04
  54 F= -.10133574E+03 E0= -.10133574E+03  d E =-.125350E-10
       N       E                     dE             d eps       ncg     rms          rms(c)
DAV:   1    -0.101334562831E+03    0.11812E-02   -0.41857E-01    96   0.177E+00    0.181E-01
DAV:   2    -0.101335718299E+03   -0.11555E-02   -0.13805E-02   120   0.346E-01    0.826E-02
DAV:   3    -0.101335661998E+03    0.56301E-04   -0.30131E-04   132   0.615E-02    0.406E-02
DAV:   4    -0.101335649507E+03    0.12491E-04   -0.82608E-05   120   0.374E-02    0.113E-02
DAV:   5    -0.101335647314E+03    0.21931E-05   -0.18516E-05   132   0.168E-02    0.705E-03
DAV:   6    -0.101335649035E+03   -0.17204E-05   -0.36740E-06   132   0.669E-03    0.386E-03
DAV:   7    -0.101335653349E+03   -0.43145E-05   -0.44847E-07    84   0.304E-03    0.113E-03
DAV:   8    -0.101335658101E+03   -0.47518E-05   -0.37763E-07    96   0.246E-03    0.817E-04
DAV:   9    -0.101335668652E+03   -0.10551E-04   -0.87104E-07    84   0.318E-03    0.345E-04
DAV:  10    -0.101335671437E+03   -0.27844E-05   -0.31991E-07   108   0.172E-03    0.447E-04
DAV:  11    -0.101335672962E+03   -0.15249E-05   -0.30738E-08    84   0.656E-04    0.276E-04
DAV:  12    -0.101335676261E+03   -0.32994E-05   -0.11886E-07    84   0.818E-04    0.118E-04
DAV:  13    -0.101335677518E+03   -0.12568E-05   -0.41944E-08    96   0.462E-04    0.160E-04
DAV:  14    -0.101335678295E+03   -0.77679E-06   -0.63068E-09    84   0.264E-04
  55 F= -.10133568E+03 E0= -.10133568E+03  d E =-.728749E-10
       N       E                     dE             d eps       ncg     rms          rms(c)
DAV:   1    -0.101334160454E+03    0.15171E-02   -0.20402E-01   120   0.128E+00    0.158E-01
DAV:   2    -0.101335217071E+03   -0.10566E-02   -0.12265E-02   120   0.295E-01    0.661E-02
DAV:   3    -0.101335193244E+03    0.23827E-04   -0.24523E-04   144   0.488E-02    0.366E-02
DAV:   4    -0.101335182675E+03    0.10569E-04   -0.47766E-05   108   0.245E-02    0.100E-02
DAV:   5    -0.101335178983E+03    0.36922E-05   -0.77672E-06   132   0.112E-02    0.525E-03
DAV:   6    -0.101335179154E+03   -0.17114E-06   -0.22989E-06   120   0.602E-03
  56 F= -.10133518E+03 E0= -.10133518E+03  d E =-.695571E-11
       N       E                     dE             d eps       ncg     rms          rms(c)
DAV:   1    -0.101333982941E+03    0.11960E-02   -0.41363E-01    96   0.177E+00    0.223E-01
DAV:   2    -0.101335379393E+03   -0.13965E-02   -0.16691E-02   132   0.401E-01    0.975E-02
DAV:   3    -0.101335310262E+03    0.69131E-04   -0.36200E-04   132   0.669E-02    0.508E-02
DAV:   4    -0.101335287829E+03    0.22433E-04   -0.11158E-04   120   0.408E-02    0.134E-02
DAV:   5    -0.101335280777E+03    0.70519E-05   -0.21307E-05   132   0.181E-02    0.758E-03
DAV:   6    -0.101335281361E+03   -0.58441E-06   -0.44055E-06   108   0.745E-03
  57 F= -.10133528E+03 E0= -.10133528E+03  d E =-.570242E-11
       N       E                     dE             d eps       ncg     rms          rms(c)
DAV:   1    -0.101333838391E+03    0.14424E-02   -0.19960E-01    96   0.129E+00    0.152E-01
DAV:   2    -0.101334623674E+03   -0.78528E-03   -0.93867E-03   144   0.290E-01    0.857E-02
DAV:   3    -0.101334572296E+03    0.51379E-04   -0.17297E-04   108   0.484E-02    0.430E-02
DAV:   4    -0.101334560679E+03    0.11617E-04   -0.78822E-05   120   0.323E-02    0.905E-03
DAV:   5    -0.101334554650E+03    0.60285E-05   -0.11690E-05   120   0.129E-02    0.538E-03
DAV:   6    -0.101334553496E+03    0.11542E-05   -0.32620E-06   120   0.536E-03    0.274E-03
DAV:   7    -0.101334556146E+03   -0.26496E-05   -0.65902E-07    84   0.284E-03    0.106E-03
DAV:   8    -0.101334561120E+03   -0.49737E-05   -0.41674E-07    96   0.185E-03    0.705E-04
DAV:   9    -0.101334568198E+03   -0.70786E-05   -0.40080E-07    84   0.146E-03    0.422E-04
DAV:  10    -0.101334574450E+03   -0.62521E-05   -0.34952E-07    96   0.116E-03    0.255E-04
DAV:  11    -0.101334576893E+03   -0.24427E-05   -0.49969E-08    96   0.591E-04    0.143E-04
DAV:  12    -0.101334580094E+03   -0.32014E-05   -0.99304E-08    84   0.645E-04    0.786E-05
DAV:  13    -0.101334580880E+03   -0.78553E-06   -0.10570E-08   108   0.287E-04
  58 F= -.10133458E+03 E0= -.10133458E+03  d E =-.850603E-10
       N       E                     dE             d eps       ncg     rms          rms(c)
DAV:   1    -0.101333549362E+03    0.10307E-02   -0.40221E-01    96   0.180E+00    0.222E-01
DAV:   2    -0.101335056399E+03   -0.15070E-02   -0.18273E-02   120   0.416E-01    0.114E-01
DAV:   3    -0.101334943875E+03    0.11252E-03   -0.33007E-04   132   0.665E-02    0.596E-02
DAV:   4    -0.101334899088E+03    0.44787E-04   -0.12690E-04   108   0.429E-02    0.123E-02
DAV:   5    -0.101334891671E+03    0.74170E-05   -0.22794E-05   132   0.181E-02    0.743E-03
DAV:   6    -0.101334898345E+03   -0.66739E-05   -0.61032E-06   120   0.803E-03    0.382E-03
DAV:   7    -0.101334915340E+03   -0.16995E-04   -0.20854E-06   108   0.451E-03    0.167E-03
DAV:   8    -0.101334934556E+03   -0.19216E-04   -0.13054E-06   108   0.284E-03    0.978E-04
DAV:   9    -0.101334952651E+03   -0.18095E-04   -0.14168E-06   120   0.252E-03    0.722E-04
DAV:  10    -0.101334968853E+03   -0.16203E-04   -0.15422E-06    96   0.232E-03    0.354E-04
DAV:  11    -0.101334972309E+03   -0.34558E-05   -0.89251E-08   108   0.806E-04    0.257E-04
DAV:  12    -0.101334977497E+03   -0.51881E-05   -0.22911E-07    84   0.975E-04    0.123E-04
DAV:  13    -0.101334979018E+03   -0.15211E-05   -0.50460E-08    96   0.473E-04    0.102E-04
DAV:  14    -0.101334979896E+03   -0.87745E-06   -0.30277E-09    96   0.269E-04
  59 F= -.10133498E+03 E0= -.10133498E+03  d E =-.665975E-11
       N       E                     dE             d eps       ncg     rms          rms(c)
DAV:   1    -0.101334676488E+03    0.30253E-03   -0.19873E-01    96   0.126E+00    0.145E-01
DAV:   2    -0.101335483039E+03   -0.80655E-03   -0.97397E-03   108   0.301E-01    0.837E-02
DAV:   3    -0.101335421473E+03    0.61566E-04   -0.16243E-04   132   0.468E-02    0.446E-02
DAV:   4    -0.101335395009E+03    0.26464E-04   -0.73501E-05   108   0.326E-02    0.848E-03
DAV:   5    -0.101335388890E+03    0.61190E-05   -0.14889E-05   132   0.143E-02    0.560E-03
DAV:   6    -0.101335389624E+03   -0.73391E-06   -0.32840E-06   132   0.572E-03
  60 F= -.10133539E+03 E0= -.10133539E+03  d E =-.161369E-10
       N       E                     dE             d eps       ncg     rms          rms(c)
DAV:   1    -0.101334212853E+03    0.11760E-02   -0.41468E-01    96   0.178E+00    0.182E-01
DAV:   2    -0.101335569630E+03   -0.13568E-02   -0.15876E-02   144   0.383E-01    0.925E-02
DAV:   3    -0.101335521773E+03    0.47857E-04   -0.31648E-04   108   0.633E-02    0.474E-02
DAV:   4    -0.101335518048E+03    0.37248E-05   -0.10157E-04   120   0.408E-02    0.112E-02
DAV:   5    -0.101335512886E+03    0.51622E-05   -0.22911E-05   132   0.184E-02    0.712E-03
DAV:   6    -0.101335512554E+03    0.33201E-06   -0.45223E-06   132   0.730E-03
  61 F= -.10133551E+03 E0= -.10133551E+03  d E =-.913535E-10
       N       E                     dE             d eps       ncg     rms          rms(c)
DAV:   1    -0.101337143465E+03   -0.16306E-02   -0.24114E-01    96   0.172E+00    0.148E-01
DAV:   2    -0.101337511018E+03   -0.36755E-03   -0.58937E-03   132   0.247E-01    0.781E-02
DAV:   3    -0.101337453921E+03    0.57097E-04   -0.20512E-04   120   0.496E-02    0.335E-02
DAV:   4    -0.101337454685E+03   -0.76443E-06   -0.69315E-05   108   0.280E-02    0.879E-03
DAV:   5    -0.101337453648E+03    0.10378E-05   -0.64846E-06   132   0.990E-03    0.541E-03
DAV:   6    -0.101337453369E+03    0.27883E-06   -0.20501E-06    96   0.539E-03
  62 F= -.10133745E+03 E0= -.10133745E+03  d E =-.544141E-11
       N       E                     dE             d eps       ncg     rms          rms(c)
DAV:   1    -0.101337979278E+03   -0.52563E-03   -0.55034E-01    96   0.262E+00    0.231E-01
DAV:   2    -0.101337649591E+03    0.32969E-03   -0.35477E-03   108   0.218E-01    0.121E-01
DAV:   3    -0.101337439946E+03    0.20965E-03   -0.51511E-04   120   0.718E-02    0.359E-02
DAV:   4    -0.101337441397E+03   -0.14516E-05   -0.11255E-04   108   0.335E-02    0.133E-02
DAV:   5    -0.101337442216E+03   -0.81900E-06   -0.64865E-06   132   0.100E-02
  63 F= -.10133744E+03 E0= -.10133744E+03  d E =-.474598E-11
       N       E                     dE             d eps       ncg     rms          rms(c)
DAV:   1    -0.101336671559E+03    0.76984E-03   -0.29008E-01    96   0.190E+00    0.215E-01
DAV:   2    -0.101336446250E+03    0.22531E-03   -0.24393E-03   132   0.175E-01    0.102E-01
DAV:   3    -0.101336302351E+03    0.14390E-03   -0.35686E-04   108   0.587E-02    0.374E-02
DAV:   4    -0.101336294136E+03    0.82149E-05   -0.10599E-04   132   0.307E-02    0.126E-02
DAV:   5    -0.101336291763E+03    0.23730E-05   -0.56403E-06   108   0.101E-02    0.515E-03
DAV:   6    -0.101336292075E+03   -0.31195E-06   -0.27242E-06   132   0.569E-03
  64 F= -.10133629E+03 E0= -.10133629E+03  d E =-.456808E-11
       N       E                     dE             d eps       ncg     rms          rms(c)
DAV:   1    -0.101337072015E+03   -0.78025E-03   -0.56954E-01    96   0.260E+00    0.279E-01
DAV:   2    -0.101336604243E+03    0.46777E-03   -0.41889E-03   108   0.242E-01    0.136E-01
DAV:   3    -0.101336333277E+03    0.27097E-03   -0.65592E-04   120   0.785E-02    0.471E-02
DAV:   4    -0.101336317252E+03    0.16025E-04   -0.15795E-04   120   0.389E-02    0.168E-02
DAV:   5    -0.101336316297E+03    0.95556E-06   -0.92909E-06   120   0.134E-02
  65 F= -.10133632E+03 E0= -.10133632E+03  d E =-.518598E-11
       N       E                     dE             d eps       ncg     rms          rms(c)
DAV:   1    -0.101337850677E+03   -0.15334E-02   -0.28988E-01    96   0.195E+00    0.207E-01
DAV:   2    -0.101337594095E+03    0.25658E-03   -0.23962E-03   108   0.182E-01    0.101E-01
DAV:   3    -0.101337453928E+03    0.14017E-03   -0.41855E-04   120   0.661E-02    0.346E-02
DAV:   4    -0.101337455514E+03   -0.15857E-05   -0.11163E-04   120   0.337E-02    0.133E-02
DAV:   5    -0.101337454830E+03    0.68391E-06   -0.49258E-06   120   0.907E-03
  66 F= -.10133745E+03 E0= -.10133745E+03  d E =-.846267E-10
       N       E                     dE             d eps       ncg     rms          rms(c)
DAV:   1    -0.101338058931E+03   -0.60342E-03   -0.55756E-01    96   0.263E+00    0.224E-01
DAV:   2    -0.101337689661E+03    0.36927E-03   -0.37331E-03   108   0.218E-01    0.122E-01
DAV:   3    -0.101337456652E+03    0.23301E-03   -0.66173E-04   108   0.849E-02    0.323E-02
DAV:   4    -0.101337463392E+03   -0.67405E-05   -0.13766E-04   132   0.396E-02    0.158E-02
DAV:   5    -0.101337462486E+03    0.90618E-06   -0.44450E-06   108   0.816E-03
  67 F= -.10133746E+03 E0= -.10133746E+03  d E =-.569622E-11
       N       E                     dE             d eps       ncg     rms          rms(c)
DAV:   1    -0.101338113194E+03   -0.64980E-03   -0.27706E-01    96   0.197E+00    0.150E-01
DAV:   2    -0.101338051059E+03    0.62135E-04   -0.19570E-03   108   0.155E-01    0.856E-02
DAV:   3    -0.101337964293E+03    0.86766E-04   -0.19370E-04   132   0.450E-02    0.198E-02
DAV:   4    -0.101337965462E+03   -0.11689E-05   -0.37205E-05   132   0.196E-02    0.630E-03
DAV:   5    -0.101337965455E+03    0.69035E-08   -0.12334E-06   108   0.457E-03
  68 F= -.10133797E+03 E0= -.10133797E+03  d E =-.548286E-11
       N       E                     dE             d eps       ncg     rms          rms(c)
DAV:   1    -0.101338547926E+03   -0.58246E-03   -0.55198E-01    96   0.272E+00    0.201E-01
DAV:   2    -0.101338280864E+03    0.26706E-03   -0.29918E-03   108   0.188E-01    0.113E-01
DAV:   3    -0.101338101451E+03    0.17941E-03   -0.50562E-04   120   0.720E-02    0.249E-02
DAV:   4    -0.101338109667E+03   -0.82161E-05   -0.90119E-05   132   0.312E-02    0.922E-03
DAV:   5    -0.101338109839E+03   -0.17172E-06   -0.34133E-06   132   0.705E-03
  69 F= -.10133811E+03 E0= -.10133811E+03  d E =-.899279E-10
       N       E                     dE             d eps       ncg     rms          rms(c)
DAV:   1    -0.101338225243E+03   -0.11558E-03   -0.27628E-01    96   0.195E+00    0.142E-01
DAV:   2    -0.101338080303E+03    0.14494E-03   -0.14322E-03   108   0.130E-01    0.805E-02
DAV:   3    -0.101337991053E+03    0.89250E-04   -0.26104E-04   108   0.488E-02    0.169E-02
DAV:   4    -0.101337993091E+03   -0.20379E-05   -0.39161E-05   132   0.206E-02    0.641E-03
DAV:   5    -0.101337992790E+03    0.30178E-06   -0.13081E-06    96   0.466E-03
  70 F= -.10133799E+03 E0= -.10133799E+03  d E =-.488855E-11
       N       E                     dE             d eps       ncg     rms          rms(c)
DAV:   1    -0.101338293968E+03   -0.30088E-03   -0.55074E-01    96   0.272E+00    0.206E-01
DAV:   2    -0.101338017530E+03    0.27644E-03   -0.29787E-03   108   0.192E-01    0.114E-01
DAV:   3    -0.101337826968E+03    0.19056E-03   -0.46086E-04   120   0.661E-02    0.275E-02
DAV:   4    -0.101337827861E+03   -0.89300E-06   -0.78960E-05   132   0.291E-02    0.924E-03
DAV:   5    -0.101337827898E+03   -0.37119E-07   -0.39461E-06   132   0.776E-03
  71 F= -.10133783E+03 E0= -.10133783E+03  d E =-.472744E-11
       N       E                     dE             d eps       ncg     rms          rms(c)
DAV:   1    -0.101335613935E+03    0.22139E-02   -0.27952E-01    96   0.194E+00    0.165E-01
DAV:   2    -0.101335433221E+03    0.18071E-03   -0.19702E-03   120   0.163E-01    0.872E-02
DAV:   3    -0.101335314278E+03    0.11894E-03   -0.31218E-04   120   0.598E-02    0.266E-02
DAV:   4    -0.101335317509E+03   -0.32312E-05   -0.80613E-05   132   0.300E-02    0.116E-02
DAV:   5    -0.101335318793E+03   -0.12837E-05   -0.30779E-06   108   0.709E-03    0.643E-03
DAV:   6    -0.101335321575E+03   -0.27824E-05   -0.21853E-06   132   0.536E-03    0.930E-04
DAV:   7    -0.101335322986E+03   -0.14106E-05   -0.45860E-07   108   0.269E-03    0.734E-04
DAV:   8    -0.101335325013E+03   -0.20275E-05   -0.95697E-08    84   0.105E-03    0.270E-04
DAV:   9    -0.101335326749E+03   -0.17358E-05   -0.70768E-08    96   0.712E-04    0.220E-04
DAV:  10    -0.101335328286E+03   -0.15367E-05   -0.59542E-08   108   0.623E-04    0.133E-04
DAV:  11    -0.101335329472E+03   -0.11860E-05   -0.55731E-08    84   0.515E-04    0.806E-05
DAV:  12    -0.101335329989E+03   -0.51699E-06   -0.93484E-09    96   0.302E-04
  72 F= -.10133533E+03 E0= -.10133533E+03  d E =-.914451E-10
       N       E                     dE             d eps       ncg     rms          rms(c)
DAV:   1    -0.101336126282E+03   -0.79681E-03   -0.58996E-01   108   0.283E+00    0.313E-01
DAV:   2    -0.101335554188E+03    0.57209E-03   -0.54331E-03   108   0.273E-01    0.152E-01
DAV:   3    -0.101335193358E+03    0.36083E-03   -0.95456E-04   132   0.102E-01    0.517E-02
DAV:   4    -0.101335184326E+03    0.90319E-05   -0.25353E-04   108   0.516E-02    0.215E-02
DAV:   5    -0.101335181718E+03    0.26078E-05   -0.11111E-05   120   0.134E-02    0.892E-03
DAV:   6    -0.101335183222E+03   -0.15039E-05   -0.61238E-06   132   0.990E-03    0.216E-03
DAV:   7    -0.101335186489E+03   -0.32664E-05   -0.19218E-06   120   0.489E-03    0.164E-03
DAV:   8    -0.101335190225E+03   -0.37367E-05   -0.14657E-07   108   0.113E-03    0.657E-04
DAV:   9    -0.101335195178E+03   -0.49522E-05   -0.31149E-07    84   0.161E-03    0.646E-04
DAV:  10    -0.101335199062E+03   -0.38844E-05   -0.21286E-07    96   0.150E-03    0.101E-03
DAV:  11    -0.101335202364E+03   -0.33017E-05   -0.13758E-07    84   0.972E-04    0.433E-04
DAV:  12    -0.101335203242E+03   -0.87870E-06   -0.15244E-08   108   0.474E-04
  73 F= -.10133520E+03 E0= -.10133520E+03  d E =-.939676E-10
       N       E                     dE             d eps       ncg     rms          rms(c)
DAV:   1    -0.101337531007E+03   -0.23286E-02   -0.28005E-01    96   0.207E+00    0.182E-01
DAV:   2    -0.101337405327E+03    0.12568E-03   -0.27686E-03   108   0.205E-01    0.918E-02
[...]
DAV:   9    -0.101336059897E+03   -0.75148E-05   -0.64780E-07    96   0.166E-03    0.309E-04
DAV:  10    -0.101336063982E+03   -0.40852E-05   -0.24342E-07    96   0.112E-03    0.184E-04
DAV:  11    -0.101336065908E+03   -0.19255E-05   -0.85844E-08    96   0.616E-04    0.116E-04
DAV:  12    -0.101336067331E+03   -0.14238E-05   -0.42507E-08    84   0.433E-04    0.800E-05
DAV:  13    -0.101336068021E+03   -0.68985E-06   -0.14593E-08    96   0.294E-04
 129 F= -.10133607E+03 E0= -.10133607E+03  d E =-.875025E-10
       N       E                     dE             d eps       ncg     rms          rms(c)
DAV:   1    -0.101338233097E+03   -0.21658E-02   -0.26830E-01    96   0.131E+00    0.132E-01
DAV:   2    -0.101338170744E+03    0.62353E-04   -0.16371E-03   108   0.116E-01    0.731E-02
DAV:   3    -0.101338090813E+03    0.79931E-04   -0.24392E-04   132   0.408E-02    0.162E-02
DAV:   4    -0.101338089265E+03    0.15473E-05   -0.32909E-05   108   0.170E-02    0.728E-03
DAV:   5    -0.101338088679E+03    0.58613E-06   -0.23357E-06   132   0.543E-03
 130 F= -.10133809E+03 E0= -.10133809E+03  d E =-.500724E-11
       N       E                     dE             d eps       ncg     rms          rms(c)
DAV:   1    -0.101338228297E+03   -0.13903E-03   -0.52436E-01    96   0.198E+00    0.155E-01
DAV:   2    -0.101338130637E+03    0.97660E-04   -0.19986E-03    96   0.137E-01    0.900E-02
DAV:   3    -0.101338045983E+03    0.84653E-04   -0.33372E-04   108   0.569E-02    0.117E-02
DAV:   4    -0.101338051867E+03   -0.58838E-05   -0.51406E-05   132   0.231E-02    0.866E-03
DAV:   5    -0.101338052374E+03   -0.50682E-06   -0.14066E-06   120   0.405E-03
 131 F= -.10133805E+03 E0= -.10133805E+03  d E =-.477080E-11
       N       E                     dE             d eps       ncg     rms          rms(c)
DAV:   1    -0.101337619792E+03    0.43207E-03   -0.26185E-01    96   0.135E+00    0.110E-01
DAV:   2    -0.101337571804E+03    0.47988E-04   -0.10416E-03   108   0.976E-02    0.635E-02
DAV:   3    -0.101337527526E+03    0.44278E-04   -0.16628E-04   108   0.392E-02    0.882E-03
DAV:   4    -0.101337530115E+03   -0.25890E-05   -0.24936E-05   132   0.161E-02    0.615E-03
DAV:   5    -0.101337530381E+03   -0.26572E-06   -0.68175E-07   108   0.301E-03
 132 F= -.10133753E+03 E0= -.10133753E+03  d E =-.952153E-10
       N       E                     dE             d eps       ncg     rms          rms(c)
DAV:   1    -0.101337967612E+03   -0.43750E-03   -0.52829E-01    96   0.182E+00    0.168E-01
DAV:   2    -0.101337883093E+03    0.84519E-04   -0.25456E-03   108   0.140E-01    0.948E-02
DAV:   3    -0.101337769803E+03    0.11329E-03   -0.37424E-04   120   0.530E-02    0.183E-02
DAV:   4    -0.101337772293E+03   -0.24903E-05   -0.54008E-05   120   0.220E-02    0.867E-03
DAV:   5    -0.101337771944E+03    0.34953E-06   -0.25536E-06   120   0.540E-03
 133 F= -.10133777E+03 E0= -.10133777E+03  d E =-.512728E-11
       N       E                     dE             d eps       ncg     rms          rms(c)
DAV:   1    -0.101337587105E+03    0.18519E-03   -0.27094E-01    96   0.181E+00    0.144E-01
DAV:   2    -0.101337530624E+03    0.56481E-04   -0.18103E-03   108   0.144E-01    0.781E-02
DAV:   3    -0.101337459175E+03    0.71448E-04   -0.17947E-04   120   0.398E-02    0.238E-02
DAV:   4    -0.101337459079E+03    0.96346E-07   -0.44746E-05   108   0.194E-02    0.628E-03
DAV:   5    -0.101337458376E+03    0.70298E-06   -0.31516E-06   132   0.639E-03
 134 F= -.10133746E+03 E0= -.10133746E+03  d E =-.524304E-11
       N       E                     dE             d eps       ncg     rms          rms(c)
DAV:   1    -0.101337859204E+03   -0.40012E-03   -0.55336E-01    96   0.254E+00    0.237E-01
DAV:   2    -0.101337498219E+03    0.36098E-03   -0.31292E-03   120   0.184E-01    0.120E-01
DAV:   3    -0.101337287457E+03    0.21076E-03   -0.45094E-04   108   0.582E-02    0.399E-02
DAV:   4    -0.101337279434E+03    0.80226E-05   -0.10761E-04   120   0.296E-02    0.118E-02
DAV:   5    -0.101337280094E+03   -0.65977E-06   -0.81513E-06   108   0.107E-02
 135 F= -.10133728E+03 E0= -.10133728E+03  d E =-.439129E-11
       N       E                     dE             d eps       ncg     rms          rms(c)
DAV:   1    -0.101336637701E+03    0.64173E-03   -0.29002E-01   108   0.181E+00    0.215E-01
DAV:   2    -0.101336381346E+03    0.25635E-03   -0.23732E-03   108   0.167E-01    0.103E-01
DAV:   3    -0.101336240185E+03    0.14116E-03   -0.38785E-04   120   0.591E-02    0.375E-02
DAV:   4    -0.101336239475E+03    0.70978E-06   -0.11913E-04   108   0.322E-02    0.138E-02
DAV:   5    -0.101336238136E+03    0.13393E-05   -0.54405E-06   120   0.925E-03    0.593E-03
DAV:   6    -0.101336238264E+03   -0.12833E-06   -0.25853E-06   108   0.557E-03
 136 F= -.10133624E+03 E0= -.10133624E+03  d E =-.430140E-11
       N       E                     dE             d eps       ncg     rms          rms(c)
DAV:   1    -0.101337250442E+03   -0.10123E-02   -0.57418E-01    96   0.257E+00    0.273E-01
DAV:   2    -0.101336718814E+03    0.53163E-03   -0.44849E-03   108   0.229E-01    0.138E-01
DAV:   3    -0.101336417070E+03    0.30174E-03   -0.79157E-04   120   0.839E-02    0.449E-02
DAV:   4    -0.101336416598E+03    0.47241E-06   -0.19522E-04   108   0.425E-02    0.189E-02
DAV:   5    -0.101336415842E+03    0.75585E-06   -0.86347E-06   132   0.107E-02
 137 F= -.10133642E+03 E0= -.10133642E+03  d E =-.490560E-11
       N       E                     dE             d eps       ncg     rms          rms(c)
DAV:   1    -0.101337979131E+03   -0.15625E-02   -0.28888E-01    96   0.176E+00    0.203E-01
DAV:   2    -0.101337712922E+03    0.26621E-03   -0.22741E-03   108   0.167E-01    0.101E-01
DAV:   3    -0.101337571244E+03    0.14168E-03   -0.40492E-04   120   0.608E-02    0.344E-02
DAV:   4    -0.101337573246E+03   -0.20027E-05   -0.11285E-04   108   0.319E-02    0.135E-02
DAV:   5    -0.101337572273E+03    0.97340E-06   -0.47225E-06   132   0.878E-03
 138 F= -.10133757E+03 E0= -.10133757E+03  d E =-.917791E-10
       N       E                     dE             d eps       ncg     rms          rms(c)
DAV:   1    -0.101338023943E+03   -0.45070E-03   -0.54878E-01    96   0.251E+00    0.227E-01
DAV:   2    -0.101337689822E+03    0.33412E-03   -0.31992E-03   108   0.185E-01    0.120E-01
DAV:   3    -0.101337489811E+03    0.20001E-03   -0.47346E-04   132   0.627E-02    0.362E-02
DAV:   4    -0.101337491756E+03   -0.19451E-05   -0.10040E-04   108   0.299E-02    0.118E-02
DAV:   5    -0.101337492038E+03   -0.28185E-06   -0.59075E-06   132   0.927E-03
 139 F= -.10133749E+03 E0= -.10133749E+03  d E =-.576815E-11
       N       E                     dE             d eps       ncg     rms          rms(c)
DAV:   1    -0.101337401069E+03    0.90688E-04   -0.27700E-01    96   0.179E+00    0.167E-01
DAV:   2    -0.101337270073E+03    0.13100E-03   -0.16898E-03   108   0.136E-01    0.878E-02
DAV:   3    -0.101337175684E+03    0.94389E-04   -0.27099E-04   120   0.435E-02    0.261E-02
DAV:   4    -0.101337172726E+03    0.29576E-05   -0.38900E-05   120   0.179E-02    0.104E-02
DAV:   5    -0.101337171060E+03    0.16658E-05   -0.27440E-06   120   0.696E-03    0.456E-03
DAV:   6    -0.101337171174E+03   -0.11326E-06   -0.20157E-06   108   0.492E-03
 140 F= -.10133717E+03 E0= -.10133717E+03  d E =-.485675E-11
       N       E                     dE             d eps       ncg     rms          rms(c)
DAV:   1    -0.101337634330E+03   -0.46327E-03   -0.55704E-01    96   0.256E+00    0.250E-01
DAV:   2    -0.101337240437E+03    0.39389E-03   -0.33810E-03   108   0.193E-01    0.124E-01
DAV:   3    -0.101337019811E+03    0.22063E-03   -0.49470E-04   120   0.611E-02    0.431E-02
DAV:   4    -0.101337008711E+03    0.11100E-04   -0.12636E-04   108   0.322E-02    0.132E-02
DAV:   5    -0.101337008882E+03   -0.17116E-06   -0.94054E-06   132   0.118E-02
 141 F= -.10133701E+03 E0= -.10133701E+03  d E =-.447541E-11
       N       E                     dE             d eps       ncg     rms          rms(c)
DAV:   1    -0.101336382113E+03    0.62660E-03   -0.27295E-01    96   0.175E+00    0.139E-01
DAV:   2    -0.101336249173E+03    0.13294E-03   -0.14527E-03   120   0.123E-01    0.787E-02
DAV:   3    -0.101336162458E+03    0.86716E-04   -0.26940E-04   108   0.493E-02    0.164E-02
DAV:   4    -0.101336167617E+03   -0.51595E-05   -0.49336E-05   132   0.220E-02    0.808E-03
DAV:   5    -0.101336168475E+03   -0.85742E-06   -0.14669E-06   132   0.448E-03
 142 F= -.10133617E+03 E0= -.10133617E+03  d E =-.468591E-11
       N       E                     dE             d eps       ncg     rms          rms(c)
DAV:   1    -0.101336840440E+03   -0.67282E-03   -0.58111E-01    96   0.253E+00    0.288E-01
DAV:   2    -0.101336284941E+03    0.55550E-03   -0.45548E-03   108   0.237E-01    0.142E-01
DAV:   3    -0.101335974775E+03    0.31017E-03   -0.84788E-04   120   0.889E-02    0.486E-02
DAV:   4    -0.101335974686E+03    0.89424E-07   -0.23350E-04   108   0.460E-02    0.188E-02
DAV:   5    -0.101335972435E+03    0.22508E-05   -0.96895E-06   132   0.119E-02    0.848E-03
DAV:   6    -0.101335972557E+03   -0.12191E-06   -0.47758E-06   108   0.765E-03
 143 F= -.10133597E+03 E0= -.10133597E+03  d E =-.437684E-11
       N       E                     dE             d eps       ncg     rms          rms(c)
DAV:   1    -0.101338444868E+03   -0.24724E-02   -0.28206E-01    96   0.179E+00    0.168E-01
DAV:   2    -0.101338231933E+03    0.21294E-03   -0.18990E-03   108   0.148E-01    0.899E-02
DAV:   3    -0.101338115011E+03    0.11692E-03   -0.34133E-04   120   0.564E-02    0.253E-02
DAV:   4    -0.101338120247E+03   -0.52360E-05   -0.77896E-05   120   0.276E-02    0.119E-02
DAV:   5    -0.101338120486E+03   -0.23904E-06   -0.27349E-06   132   0.617E-03
 144 F= -.10133812E+03 E0= -.10133812E+03  d E =-.441636E-11
       N       E                     dE             d eps       ncg     rms          rms(c)
DAV:   1    -0.101338434424E+03   -0.31418E-03   -0.54331E-01    96   0.248E+00    0.201E-01
DAV:   2    -0.101338144271E+03    0.29015E-03   -0.26999E-03   108   0.170E-01    0.112E-01
DAV:   3    -0.101337972229E+03    0.17204E-03   -0.46474E-04   132   0.630E-02    0.234E-02
DAV:   4    -0.101337978622E+03   -0.63933E-05   -0.75327E-05   120   0.264E-02    0.886E-03
DAV:   5    -0.101337979094E+03   -0.47139E-06   -0.30270E-06   132   0.619E-03
 145 F= -.10133798E+03 E0= -.10133798E+03  d E =-.572559E-11
       N       E                     dE             d eps       ncg     rms          rms(c)
DAV:   1    -0.101337453070E+03    0.52555E-03   -0.27069E-01    96   0.202E+00    0.134E-01
DAV:   2    -0.101337396966E+03    0.56105E-04   -0.18934E-03   120   0.161E-01    0.762E-02
DAV:   3    -0.101337321242E+03    0.75723E-04   -0.23558E-04   108   0.508E-02    0.184E-02
DAV:   4    -0.101337324892E+03   -0.36496E-05   -0.52208E-05   132   0.235E-02    0.745E-03
DAV:   5    -0.101337324776E+03    0.11593E-06   -0.15847E-06    84   0.520E-03
 146 F= -.10133732E+03 E0= -.10133732E+03  d E =-.446273E-11
       N       E                     dE             d eps       ncg     rms          rms(c)
DAV:   1    -0.101337525235E+03   -0.20034E-03   -0.53597E-01   108   0.263E+00    0.178E-01
DAV:   2    -0.101337411811E+03    0.11342E-03   -0.33702E-03   108   0.205E-01    0.100E-01
DAV:   3    -0.101337254867E+03    0.15694E-03   -0.46227E-04   108   0.696E-02    0.224E-02
DAV:   4    -0.101337259093E+03   -0.42258E-05   -0.11210E-04   132   0.338E-02    0.109E-02
DAV:   5    -0.101337258031E+03    0.10614E-05   -0.29990E-06   120   0.653E-03    0.692E-03
DAV:   6    -0.101337258739E+03   -0.70769E-06   -0.33083E-06   108   0.649E-03
 147 F= -.10133726E+03 E0= -.10133726E+03  d E =-.435392E-11
       N       E                     dE             d eps       ncg     rms          rms(c)
DAV:   1    -0.101336143225E+03    0.11148E-02   -0.26431E-01    96   0.184E+00    0.112E-01
DAV:   2    -0.101336078056E+03    0.65169E-04   -0.10255E-03   108   0.112E-01    0.640E-02
DAV:   3    -0.101336019653E+03    0.58403E-04   -0.17080E-04   120   0.400E-02    0.103E-02
DAV:   4    -0.101336022346E+03   -0.26932E-05   -0.26615E-05   120   0.171E-02    0.565E-03
DAV:   5    -0.101336023729E+03   -0.13835E-05   -0.10872E-06   108   0.370E-03    0.350E-03
DAV:   6    -0.101336026722E+03   -0.29932E-05   -0.88584E-07    96   0.318E-03    0.703E-04
DAV:   7    -0.101336028582E+03   -0.18595E-05   -0.20458E-07   108   0.161E-03    0.587E-04
DAV:   8    -0.101336031820E+03   -0.32379E-05   -0.18928E-07    84   0.152E-03    0.287E-04
DAV:   9    -0.101336033806E+03   -0.19860E-05   -0.12853E-07   108   0.104E-03    0.231E-04
DAV:  10    -0.101336036055E+03   -0.22490E-05   -0.83498E-08    84   0.705E-04    0.115E-04
DAV:  11    -0.101336036881E+03   -0.82554E-06   -0.21356E-08   108   0.356E-04
 148 F= -.10133604E+03 E0= -.10133604E+03  d E =-.902384E-10
       N       E                     dE             d eps       ncg     rms          rms(c)
DAV:   1    -0.101336520293E+03   -0.48424E-03   -0.54472E-01   108   0.268E+00    0.206E-01
DAV:   2    -0.101336416848E+03    0.10345E-03   -0.41954E-03   108   0.225E-01    0.110E-01
DAV:   3    -0.101336227014E+03    0.18983E-03   -0.49051E-04   132   0.629E-02    0.320E-02
DAV:   4    -0.101336215063E+03    0.11951E-04   -0.89047E-05   108   0.277E-02    0.108E-02
DAV:   5    -0.101336212272E+03    0.27911E-05   -0.68177E-06   132   0.106E-02    0.476E-03
DAV:   6    -0.101336215121E+03   -0.28488E-05   -0.46687E-06   132   0.750E-03    0.194E-03
DAV:   7    -0.101336220112E+03   -0.49904E-05   -0.11861E-06   108   0.386E-03    0.124E-03
DAV:   8    -0.101336225342E+03   -0.52302E-05   -0.33351E-07   108   0.206E-03    0.717E-04
DAV:   9    -0.101336231305E+03   -0.59633E-05   -0.38039E-07    84   0.190E-03    0.413E-04
DAV:  10    -0.101336237517E+03   -0.62123E-05   -0.38841E-07    96   0.147E-03    0.199E-04
DAV:  11    -0.101336239920E+03   -0.24023E-05   -0.54759E-08   108   0.669E-04    0.147E-04
DAV:  12    -0.101336241969E+03   -0.20489E-05   -0.28902E-08    84   0.410E-04    0.730E-05
DAV:  13    -0.101336243418E+03   -0.14498E-05   -0.24066E-08    84   0.344E-04    0.456E-05
DAV:  14    -0.101336244263E+03   -0.84489E-06   -0.38288E-09    96   0.216E-04
 149 F= -.10133624E+03 E0= -.10133624E+03  d E =-.427065E-11
       N       E                     dE             d eps       ncg     rms          rms(c)
DAV:   1    -0.101338274895E+03   -0.20315E-02   -0.26605E-01   108   0.187E+00    0.129E-01
DAV:   2    -0.101338194021E+03    0.80874E-04   -0.15056E-03   108   0.141E-01    0.713E-02
DAV:   3    -0.101338120354E+03    0.73667E-04   -0.21752E-04   120   0.451E-02    0.158E-02
DAV:   4    -0.101338120794E+03   -0.44023E-06   -0.36900E-05   132   0.195E-02    0.732E-03
DAV:   5    -0.101338121215E+03   -0.42129E-06   -0.17369E-06   108   0.498E-03
 150 F= -.10133812E+03 E0= -.10133812E+03  d E =-.535990E-11
       N       E                     dE             d eps       ncg     rms          rms(c)
DAV:   1    -0.101338258181E+03   -0.13739E-03   -0.52676E-01    96   0.258E+00    0.159E-01
DAV:   2    -0.101338130549E+03    0.12763E-03   -0.20853E-03   108   0.158E-01    0.920E-02
DAV:   3    -0.101338021480E+03    0.10907E-03   -0.37542E-04   132   0.613E-02    0.118E-02
DAV:   4    -0.101338028352E+03   -0.68718E-05   -0.56690E-05   132   0.251E-02    0.757E-03
DAV:   5    -0.101338029572E+03   -0.12203E-05   -0.16374E-06   108   0.467E-03    0.526E-03
DAV:   6    -0.101338033701E+03   -0.41286E-05   -0.19801E-06    96   0.466E-03    0.908E-04
DAV:   7    -0.101338035997E+03   -0.22967E-05   -0.49769E-07   108   0.233E-03    0.894E-04
DAV:   8    -0.101338039149E+03   -0.31512E-05   -0.17081E-07    84   0.158E-03    0.466E-04
DAV:   9    -0.101338042719E+03   -0.35709E-05   -0.22211E-07    96   0.159E-03    0.281E-04
DAV:  10    -0.101338045424E+03   -0.27048E-05   -0.14300E-07    84   0.101E-03    0.137E-04
DAV:  11    -0.101338046511E+03   -0.10866E-05   -0.32272E-08   108   0.462E-04    0.104E-04
DAV:  12    -0.101338047177E+03   -0.66565E-06   -0.91574E-09    84   0.288E-04
 151 F= -.10133805E+03 E0= -.10133805E+03  d E =-.811250E-10
       N       E                     dE             d eps       ncg     rms          rms(c)
DAV:   1    -0.101336017323E+03    0.20292E-02   -0.26708E-01   108   0.195E+00    0.131E-01
DAV:   2    -0.101335966122E+03    0.51201E-04   -0.19494E-03   108   0.161E-01    0.713E-02
DAV:   3    -0.101335885590E+03    0.80532E-04   -0.22650E-04   120   0.504E-02    0.191E-02
DAV:   4    -0.101335887279E+03   -0.16898E-05   -0.60468E-05   120   0.245E-02    0.721E-03
DAV:   5    -0.101335887516E+03   -0.23691E-06   -0.25938E-06   132   0.594E-03
 152 F= -.10133589E+03 E0= -.10133589E+03  d E =-.450930E-11
       N       E                     dE             d eps       ncg     rms          rms(c)
DAV:   1    -0.101336212208E+03   -0.32493E-03   -0.54596E-01   108   0.267E+00    0.208E-01
DAV:   2    -0.101336121106E+03    0.91102E-04   -0.46194E-03   120   0.244E-01    0.114E-01
DAV:   3    -0.101335910790E+03    0.21032E-03   -0.56589E-04   108   0.771E-02    0.311E-02
DAV:   4    -0.101335910314E+03    0.47609E-06   -0.15493E-04   132   0.378E-02    0.124E-02
DAV:   5    -0.101335907838E+03    0.24756E-05   -0.55337E-06   120   0.945E-03    0.707E-03
DAV:   6    -0.101335908443E+03   -0.60436E-06   -0.51329E-06   108   0.859E-03
 153 F= -.10133591E+03 E0= -.10133591E+03  d E =-.517492E-11
       N       E                     dE             d eps       ncg     rms          rms(c)
DAV:   1    -0.101338092910E+03   -0.21851E-02   -0.26907E-01    96   0.188E+00    0.140E-01
DAV:   2    -0.101338037106E+03    0.55804E-04   -0.19098E-03    96   0.153E-01    0.762E-02
DAV:   3    -0.101337961448E+03    0.75658E-04   -0.24346E-04   108   0.448E-02    0.206E-02
DAV:   4    -0.101337960192E+03    0.12559E-05   -0.41276E-05   120   0.195E-02    0.815E-03
DAV:   5    -0.101337959260E+03    0.93165E-06   -0.27843E-06    96   0.657E-03
 154 F= -.10133796E+03 E0= -.10133796E+03  d E =-.485209E-11
       N       E                     dE             d eps       ncg     rms          rms(c)
DAV:   1    -0.101338300056E+03   -0.33986E-03   -0.53205E-01    96   0.262E+00    0.161E-01
DAV:   2    -0.101338180751E+03    0.11930E-03   -0.20159E-03   108   0.152E-01    0.922E-02
DAV:   3    -0.101338073253E+03    0.10750E-03   -0.34718E-04   120   0.572E-02    0.146E-02
DAV:   4    -0.101338076258E+03   -0.30046E-05   -0.51672E-05   108   0.239E-02    0.753E-03
DAV:   5    -0.101338075633E+03    0.62470E-06   -0.18921E-06   120   0.506E-03
 155 F= -.10133808E+03 E0= -.10133808E+03  d E =-.464318E-11
       N       E                     dE             d eps       ncg     rms          rms(c)
DAV:   1    -0.101337655220E+03    0.42104E-03   -0.26452E-01    96   0.188E+00    0.116E-01
DAV:   2    -0.101337589278E+03    0.65942E-04   -0.11233E-03   120   0.118E-01    0.666E-02
DAV:   3    -0.101337539812E+03    0.49466E-04   -0.18206E-04   132   0.452E-02    0.941E-03
DAV:   4    -0.101337543758E+03   -0.39466E-05   -0.33888E-05   120   0.193E-02    0.593E-03
DAV:   5    -0.101337544131E+03   -0.37311E-06   -0.76606E-07   108   0.340E-03
 156 F= -.10133754E+03 E0= -.10133754E+03  d E =-.497469E-11
       N       E                     dE             d eps       ncg     rms          rms(c)
DAV:   1    -0.101337862580E+03   -0.31882E-03   -0.52861E-01    96   0.265E+00    0.173E-01
DAV:   2    -0.101337774443E+03    0.88136E-04   -0.28995E-03   108   0.190E-01    0.972E-02
DAV:   3    -0.101337644149E+03    0.13029E-03   -0.36897E-04   120   0.594E-02    0.205E-02
DAV:   4    -0.101337645223E+03   -0.10741E-05   -0.65122E-05   120   0.257E-02    0.925E-03
DAV:   5    -0.101337645345E+03   -0.12116E-06   -0.30163E-06   132   0.632E-03
 157 F= -.10133765E+03 E0= -.10133765E+03  d E =-.514530E-11
