 vasp.5.4.4.18Apr17-6-g9f103f2a35 (build Nov 06 2017 19:16:10) complex          
  
 executed on           IFC91_ompi date 2018.07.11  22:48:01
 running on   12 total cores
 distrk:  each k-point on   12 cores,    1 groups
 distr:  one band on NCORES_PER_BAND=   6 cores,    2 groups


--------------------------------------------------------------------------------------------------------


 INCAR:
 POTCAR:    PAW_PBE Si 05Jan2001                  
 POTCAR:    PAW_PBE Ge 05Jan2001                  
 POTCAR:    PAW_PBE H 15Jun2001                   
 POTCAR:    PAW_PBE Si 05Jan2001                  
   VRHFIN =Si: s2p2                                                             
   LEXCH  = PE                                                                  
   EATOM  =   103.0669 eV,    7.5752 Ry                                         
                                                                                
   TITEL  = PAW_PBE Si 05Jan2001                                                
   LULTRA =        F    use ultrasoft PP ?                                      
   IUNSCR =        1    unscreen: 0-lin 1-nonlin 2-no                           
   RPACOR =    1.500    partial core radius                                     
   POMASS =   28.085; ZVAL   =    4.000    mass and valenz                      
   RCORE  =    1.900    outmost cutoff radius                                   
   RWIGS  =    2.480; RWIGS  =    1.312    wigner-seitz radius (au A)           
   ENMAX  =  245.345; ENMIN  =  184.009 eV                                      
   ICORE  =        2    local potential                                         
   LCOR   =        T    correct aug charges                                     
   LPAW   =        T    paw PP                                                  
   EAUG   =  322.069                                                            
   DEXC   =    0.000                                                            
   RMAX   =    1.950    core radius for proj-oper                               
   RAUG   =    1.300    factor for augmentation sphere                          
   RDEP   =    1.993    radius for radial grids                                 
   RDEPT  =    1.837    core radius for aug-charge                              
                                                                                
   Atomic configuration                                                         
    6 entries                                                                   
     n  l   j            E        occ.                                          
     1  0  0.50     -1785.8828   2.0000                                         
     2  0  0.50      -139.4969   2.0000                                         
     2  1  1.50       -95.5546   6.0000                                         
     3  0  0.50       -10.8127   2.0000                                         
     3  1  0.50        -4.0811   2.0000                                         
     3  2  1.50        -4.0817   0.0000                                         
   Description                                                                  
     l       E           TYP  RCUT    TYP  RCUT                                 
     0    -10.8127223     23  1.900                                             
     0     -7.6451159     23  1.900                                             
     1     -4.0811372     23  1.900                                             
     1      2.4879257     23  1.900                                             
     2     -4.0817478      7  1.900                                             
  local pseudopotential read in
  partial core-charges read in
  partial kinetic energy density read in
  atomic valenz-charges read in
  non local Contribution for L=           0  read in
    real space projection operators read in
  non local Contribution for L=           0  read in
    real space projection operators read in
  non local Contribution for L=           1  read in
    real space projection operators read in
  non local Contribution for L=           1  read in
    real space projection operators read in
    PAW grid and wavefunctions read in
 
   number of l-projection  operators is LMAX  =           4
   number of lm-projection operators is LMMAX =           8
 
 POTCAR:    PAW_PBE Ge 05Jan2001                  
   VRHFIN =Ge: s2p2                                                             
   LEXCH  = PE                                                                  
   EATOM  =   104.9960 eV,    7.7170 Ry                                         
                                                                                
   TITEL  = PAW_PBE Ge 05Jan2001                                                
   LULTRA =        F    use ultrasoft PP ?                                      
   IUNSCR =        1    unscreen: 0-lin 1-nonlin 2-no                           
   RPACOR =    2.170    partial core radius                                     
   POMASS =   72.610; ZVAL   =    4.000    mass and valenz                      
   RCORE  =    2.300    outmost cutoff radius                                   
   RWIGS  =    2.300; RWIGS  =    1.217    wigner-seitz radius (au A)           
   ENMAX  =  173.807; ENMIN  =  130.355 eV                                      
   ICORE  =        3    local potential                                         
   LCOR   =        T    correct aug charges                                     
   LPAW   =        T    paw PP                                                  
   EAUG   =  385.843                                                            
   DEXC   =    0.000                                                            
   RMAX   =    2.342    core radius for proj-oper                               
   RAUG   =    1.300    factor for augmentation sphere                          
   RDEP   =    2.318    radius for radial grids                                 
   RDEPT  =    2.103    core radius for aug-charge                              
                                                                                
   Atomic configuration                                                         
   10 entries                                                                   
     n  l   j            E        occ.                                          
     1  0  0.50    -10959.8463   2.0000                                         
     2  0  0.50     -1371.6056   2.0000                                         
     2  1  1.50     -1198.4791   6.0000                                         
     3  0  0.50      -168.4733   2.0000                                         
     3  1  1.50      -115.6019   6.0000                                         
     3  2  2.50       -29.3106  10.0000                                         
     4  0  0.50       -11.7309   2.0000                                         
     4  1  0.50        -3.8952   2.0000                                         
     4  2  1.50        -4.0817   0.0000                                         
     4  3  2.50        -4.0817   0.0000                                         
   Description                                                                  
     l       E           TYP  RCUT    TYP  RCUT                                 
     0    -11.7309493     23  2.300                                             
     0     -7.4578696     23  2.300                                             
     1     -3.8952261     23  2.300                                             
     1      6.1178114     23  2.300                                             
     2     -4.0817478     23  2.300                                             
     3     -1.3605826      7  2.300                                             
  local pseudopotential read in
  partial core-charges read in
  partial kinetic energy density read in
  atomic valenz-charges read in
  non local Contribution for L=           0  read in
    real space projection operators read in
  non local Contribution for L=           0  read in
    real space projection operators read in
  non local Contribution for L=           1  read in
    real space projection operators read in
  non local Contribution for L=           1  read in
    real space projection operators read in
  non local Contribution for L=           2  read in
    real space projection operators read in
    PAW grid and wavefunctions read in
 
   number of l-projection  operators is LMAX  =           5
   number of lm-projection operators is LMMAX =          13
 
 POTCAR:    PAW_PBE H 15Jun2001                   
   VRHFIN =H: ultrasoft test                                                    
   LEXCH  = PE                                                                  
   EATOM  =    12.4884 eV,    0.9179 Ry                                         
                                                                                
   TITEL  = PAW_PBE H 15Jun2001                                                 
   LULTRA =        F    use ultrasoft PP ?                                      
   IUNSCR =        0    unscreen: 0-lin 1-nonlin 2-no                           
   RPACOR =    0.000    partial core radius                                     
   POMASS =    1.000; ZVAL   =    1.000    mass and valenz                      
   RCORE  =    1.100    outmost cutoff radius                                   
   RWIGS  =    0.700; RWIGS  =    0.370    wigner-seitz radius (au A)           
   ENMAX  =  250.000; ENMIN  =  200.000 eV                                      
   RCLOC  =    0.701    cutoff for local pot                                    
   LCOR   =        T    correct aug charges                                     
   LPAW   =        T    paw PP                                                  
   EAUG   =  400.000                                                            
   RMAX   =    1.123    core radius for proj-oper                               
   RAUG   =    1.200    factor for augmentation sphere                          
   RDEP   =    1.112    radius for radial grids                                 
   RDEPT  =    0.926    core radius for aug-charge                              
                                                                                
   Atomic configuration                                                         
    2 entries                                                                   
     n  l   j            E        occ.                                          
     1  0  0.50        -6.4927   1.0000                                         
     2  1  0.50        -3.4015   0.0000                                         
   Description                                                                  
     l       E           TYP  RCUT    TYP  RCUT                                 
     0     -6.4927494     23  1.100                                             
     0      6.8029130     23  1.100                                             
     1     -4.0817478     23  1.100                                             
  local pseudopotential read in
  atomic valenz-charges read in
  non local Contribution for L=           0  read in
    real space projection operators read in
  non local Contribution for L=           0  read in
    real space projection operators read in
  non local Contribution for L=           1  read in
    real space projection operators read in
    PAW grid and wavefunctions read in
 
   number of l-projection  operators is LMAX  =           3
   number of lm-projection operators is LMMAX =           5
 

 ----------------------------------------------------------------------------- 
|                                                                             |
|  ADVICE TO THIS USER RUNNING 'VASP/VAMP'   (HEAR YOUR MASTER'S VOICE ...):  |
|                                                                             |
|      You have a (more or less) 'large supercell' and for larger cells       |
|      it might be more efficient to use real space projection opertators     |
|      So try LREAL= Auto  in the INCAR   file.                               |
|      Mind:          For very  accurate calculation you might also keep the  |
|      reciprocal projection scheme          (i.e. LREAL=.FALSE.)             |
|                                                                             |
 ----------------------------------------------------------------------------- 

  PAW_PBE Si 05Jan2001                  :
 energy of atom  1       EATOM= -103.0669
 kinetic energy error for atom=    0.0012 (will be added to EATOM!!)
  PAW_PBE Ge 05Jan2001                  :
 energy of atom  2       EATOM= -104.9960
 kinetic energy error for atom=    0.0003 (will be added to EATOM!!)
  PAW_PBE H 15Jun2001                   :
 energy of atom  3       EATOM=  -12.4884
 kinetic energy error for atom=    0.0098 (will be added to EATOM!!)
 
 
 POSCAR: SiGeH16                                 
  positions in direct lattice
  No initial velocities read in
 exchange correlation table for  LEXCH =        8
   RHO(1)=    0.500       N(1)  =     2000
   RHO(2)=  100.500       N(2)  =     4000
 


--------------------------------------------------------------------------------------------------------


 ion  position               nearest neighbor table
   1  0.475  0.556  0.385-  18 1.55   7 2.39   2 2.39   3 2.39
   2  0.369  0.539  0.436-  23 1.55  24 1.55   4 2.39   1 2.39
   3  0.542  0.457  0.396-  17 1.55  16 1.55   8 2.39   1 2.39
   4  0.385  0.515  0.552-  22 1.55  10 2.39   6 2.39   2 2.39
   5  0.613  0.525  0.565-  15 1.55  14 1.55   9 2.39   8 2.39
   6  0.451  0.416  0.564-  12 1.55  11 1.55   4 2.39   8 2.39
   7  0.531  0.648  0.437-  25 1.55  26 1.55   9 2.39   1 2.39
   8  0.557  0.433  0.512-  13 1.55   3 2.39   5 2.39   6 2.39
   9  0.547  0.624  0.554-  19 1.55   7 2.39   5 2.39  10 2.39
  10  0.440  0.606  0.605-  20 1.55  21 1.55   4 2.39   9 2.39
  11  0.415  0.357  0.529-   6 1.55
  12  0.461  0.400  0.639-   6 1.55
  13  0.600  0.369  0.520-   8 1.55
  14  0.682  0.536  0.531-   5 1.55
  15  0.623  0.509  0.640-   5 1.55
  16  0.611  0.469  0.363-   3 1.55
  17  0.506  0.398  0.362-   3 1.55
  18  0.465  0.572  0.309-   1 1.55
  19  0.583  0.683  0.588-   9 1.55
  20  0.451  0.590  0.680-  10 1.55
  21  0.397  0.670  0.598-  10 1.55
  22  0.316  0.504  0.586-   4 1.55
  23  0.333  0.479  0.402-   2 1.55
  24  0.326  0.603  0.429-   2 1.55
  25  0.488  0.712  0.430-   7 1.55
  26  0.600  0.659  0.404-   7 1.55
 
  LATTYP: Found a simple cubic cell.
 ALAT       =    20.0000000000
  
  Lattice vectors:
  
 A1 = (  20.0000000000,   0.0000000000,   0.0000000000)
 A2 = (   0.0000000000,  20.0000000000,   0.0000000000)
 A3 = (   0.0000000000,   0.0000000000,  20.0000000000)


Analysis of symmetry for initial positions (statically):
=====================================================================
 Subroutine PRICEL returns:
 Original cell was already a primitive cell.
 

 Routine SETGRP: Setting up the symmetry group for a 
 simple cubic supercell.


 Subroutine GETGRP returns: Found  1 space group operations
 (whereof  1 operations were pure point group operations)
 out of a pool of 48 trial point group operations.


The static configuration has the point symmetry C_1 .


Analysis of symmetry for dynamics (positions and initial velocities):
=====================================================================
 Subroutine PRICEL returns:
 Original cell was already a primitive cell.
 

 Routine SETGRP: Setting up the symmetry group for a 
 simple cubic supercell.


 Subroutine GETGRP returns: Found  1 space group operations
 (whereof  1 operations were pure point group operations)
 out of a pool of 48 trial point group operations.


The dynamic configuration has the point symmetry C_1 .


 Subroutine INISYM returns: Found  1 space group operations
 (whereof  1 operations are pure point group operations),
 and found     1 'primitive' translations

 
 
 KPOINTS: Automatic mesh                          

Automatic generation of k-mesh.
Space group operators:
 irot       det(A)        alpha          n_x          n_y          n_z        tau_x        tau_y        tau_z
    1     1.000000     0.000000     1.000000     0.000000     0.000000     0.000000     0.000000     0.000000
 
 Subroutine IBZKPT returns following result:
 ===========================================
 
 Found      1 irreducible k-points:
 
 Following reciprocal coordinates:
            Coordinates               Weight
  0.000000  0.000000  0.000000      1.000000
 
 Following cartesian coordinates:
            Coordinates               Weight
  0.000000  0.000000  0.000000      1.000000
 


--------------------------------------------------------------------------------------------------------




 Dimension of arrays:
   k-points           NKPTS =      1   k-points in BZ     NKDIM =      1   number of bands    NBANDS=     42
   number of dos      NEDOS =    301   number of ions     NIONS =     26
   non local maximal  LDIM  =      5   non local SUM 2l+1 LMDIM =     13
   total plane-waves  NPLWV = 941192
   max r-space proj   IRMAX =      1   max aug-charges    IRDMAX=   6593
   dimension x,y,z NGX =    98 NGY =   98 NGZ =   98
   dimension x,y,z NGXF=   196 NGYF=  196 NGZF=  196
   support grid    NGXF=   196 NGYF=  196 NGZF=  196
   ions per type =               6   4  16
   NGX,Y,Z   is equivalent  to a cutoff of   8.15,  8.15,  8.15 a.u.
   NGXF,Y,Z  is equivalent  to a cutoff of  16.29, 16.29, 16.29 a.u.

 SYSTEM =  SiGe                                    
 POSCAR =  SiGeH16                                 

 Startparameter for this run:
   NWRITE =      2    write-flag & timer
   PREC   = normal    normal or accurate (medium, high low for compatibility)
   ISTART =      0    job   : 0-new  1-cont  2-samecut
   ICHARG =      2    charge: 1-file 2-atom 10-const
   ISPIN  =      1    spin polarized calculation?
   LNONCOLLINEAR =      F non collinear calculations
   LSORBIT =      F    spin-orbit coupling
   INIWAV =      1    electr: 0-lowe 1-rand  2-diag
   LASPH  =      F    aspherical Exc in radial PAW
   METAGGA=      F    non-selfconsistent MetaGGA calc.

 Electronic Relaxation 1
   ENCUT  =  400.0 eV  29.40 Ry    5.42 a.u.  32.61 32.61 32.61*2*pi/ulx,y,z
   ENINI  =  400.0     initial cutoff
   ENAUG  =  400.0 eV  augmentation charge cutoff
   NELM   =     60;   NELMIN=  2; NELMDL= -5     # of ELM steps 
   EDIFF  = 0.1E-05   stopping-criterion for ELM
   LREAL  =      F    real-space projection
   NLSPLINE    = F    spline interpolate recip. space projectors
   LCOMPAT=      F    compatible to vasp.4.4
   GGA_COMPAT  = T    GGA compatible to vasp.4.4-vasp.4.6
   LMAXPAW     = -100 max onsite density
   LMAXMIX     =    2 max onsite mixed and CHGCAR
   VOSKOWN=      0    Vosko Wilk Nusair interpolation
   ROPT   =    0.00000   0.00000   0.00000
 Ionic relaxation
   EDIFFG = -.2E-01   stopping-criterion for IOM
   NSW    =    200    number of steps for IOM
   NBLOCK =      1;   KBLOCK =    200    inner block; outer block 
   IBRION =      2    ionic relax: 0-MD 1-quasi-New 2-CG
   NFREE  =      1    steps in history (QN), initial steepest desc. (CG)
   ISIF   =      2    stress and relaxation
   IWAVPR =     11    prediction:  0-non 1-charg 2-wave 3-comb
   ISYM   =      2    0-nonsym 1-usesym 2-fastsym
   LCORR  =      T    Harris-Foulkes like correction to forces

   POTIM  = 0.5000    time-step for ionic-motion
   TEIN   =    0.0    initial temperature
   TEBEG  =    0.0;   TEEND  =   0.0 temperature during run
   SMASS  =  -3.00    Nose mass-parameter (am)
   estimated Nose-frequenzy (Omega)   =  0.10E-29 period in steps =****** mass=  -0.914E-26a.u.
   SCALEE = 1.0000    scale energy and forces
   NPACO  =    256;   APACO  = 16.0  distance and # of slots for P.C.
   PSTRESS=    0.0 pullay stress

  Mass of Ions in am
   POMASS =  28.09 72.61  1.00
  Ionic Valenz
   ZVAL   =   4.00  4.00  1.00
  Atomic Wigner-Seitz radii
   RWIGS  =  -1.00 -1.00 -1.00
  virtual crystal weights 
   VCA    =   1.00  1.00  1.00
   NELECT =      56.0000    total number of electrons
   NUPDOWN=      -1.0000    fix difference up-down

 DOS related values:
   EMIN   =  10.00;   EMAX   =-10.00  energy-range for DOS
   EFERMI =   0.00
   ISMEAR =     0;   SIGMA  =   0.20  broadening in eV -4-tet -1-fermi 0-gaus

 Electronic relaxation 2 (details)
   IALGO  =     38    algorithm
   LDIAG  =      T    sub-space diagonalisation (order eigenvalues)
   LSUBROT=      F    optimize rotation matrix (better conditioning)
   TURBO    =      0    0=normal 1=particle mesh
   IRESTART =      0    0=no restart 2=restart with 2 vectors
   NREBOOT  =      0    no. of reboots
   NMIN     =      0    reboot dimension
   EREF     =   0.00    reference energy to select bands
   IMIX   =      4    mixing-type and parameters
     AMIX     =   0.40;   BMIX     =  1.00
     AMIX_MAG =   1.60;   BMIX_MAG =  1.00
     AMIN     =   0.10
     WC   =   100.;   INIMIX=   1;  MIXPRE=   1;  MAXMIX= -45

 Intra band minimization:
   WEIMIN = 0.0010     energy-eigenvalue tresh-hold
   EBREAK =  0.60E-08  absolut break condition
   DEPER  =   0.30     relativ break condition  

   TIME   =   0.40     timestep for ELM

  volume/ion in A,a.u.               =     307.69      2076.41
  Fermi-wavevector in a.u.,A,eV,Ry     =   0.313166  0.591797  1.334361  0.098073
  Thomas-Fermi vector in A             =   1.193276
 
 Write flags
   LWAVE        =      T    write WAVECAR
   LDOWNSAMPLE  =      F    k-point downsampling of WAVECAR
   LCHARG       =      T    write CHGCAR
   LVTOT        =      F    write LOCPOT, total local potential
   LVHAR        =      F    write LOCPOT, Hartree potential only
   LELF         =      F    write electronic localiz. function (ELF)
   LORBIT       =      0    0 simple, 1 ext, 2 COOP (PROOUT), +10 PAW based schemes


 Dipole corrections
   LMONO  =      F    monopole corrections only (constant potential shift)
   LDIPOL =      F    correct potential (dipole corrections)
   IDIPOL =      0    1-x, 2-y, 3-z, 4-all directions 
   EPSILON=  1.0000000 bulk dielectric constant

 Exchange correlation treatment:
   GGA     =    --    GGA type
   LEXCH   =     8    internal setting for exchange type
   VOSKOWN=      0    Vosko Wilk Nusair interpolation
   LHFCALC =     F    Hartree Fock is set to
   LHFONE  =     F    Hartree Fock one center treatment
   AEXX    =    0.0000 exact exchange contribution

 Linear response parameters
   LEPSILON=     F    determine dielectric tensor
   LRPA    =     F    only Hartree local field effects (RPA)
   LNABLA  =     F    use nabla operator in PAW spheres
   LVEL    =     F    velocity operator in full k-point grid
   LINTERFAST=   F  fast interpolation
   KINTER  =     0    interpolate to denser k-point grid
   CSHIFT  =0.1000    complex shift for real part using Kramers Kronig
   OMEGAMAX=  -1.0    maximum frequency
   DEG_THRESHOLD= 0.2000000E-02 threshold for treating states as degnerate
   RTIME   =   -0.100 relaxation time in fs
  (WPLASMAI=    0.000 imaginary part of plasma frequency in eV, 0.658/RTIME)
   DFIELD  = 0.0000000 0.0000000 0.0000000 field for delta impulse in time
 
 Orbital magnetization related:
   ORBITALMAG=     F  switch on orbital magnetization
   LCHIMAG   =     F  perturbation theory with respect to B field
   DQ        =  0.001000  dq finite difference perturbation B field
   LLRAUG    =     F  two centre corrections for induced B field



--------------------------------------------------------------------------------------------------------


 conjugate gradient relaxation of ions
 charge density and potential will be updated during run
 non-spin polarized calculation
 Variant of blocked Davidson
 Davidson routine will perform the subspace rotation
 perform sub-space diagonalisation
    after iterative eigenvector-optimisation
 modified Broyden-mixing scheme, WC =      100.0
 initial mixing is a Kerker type mixing with AMIX =  0.4000 and BMIX =      1.0000
 Hartree-type preconditioning will be used
 using additional bands           14
 reciprocal scheme for non local part
 use partial core corrections
 calculate Harris-corrections to forces 
   (improved forces if not selfconsistent)
 use gradient corrections 
 use of overlap-Matrix (Vanderbilt PP)
 Gauss-broadening in eV      SIGMA  =   0.20


--------------------------------------------------------------------------------------------------------


  energy-cutoff  :      400.00
  volume of cell :     8000.00
      direct lattice vectors                 reciprocal lattice vectors
    20.000000000  0.000000000  0.000000000     0.050000000  0.000000000  0.000000000
     0.000000000 20.000000000  0.000000000     0.000000000  0.050000000  0.000000000
     0.000000000  0.000000000 20.000000000     0.000000000  0.000000000  0.050000000

  length of vectors
    20.000000000 20.000000000 20.000000000     0.050000000  0.050000000  0.050000000


 
 k-points in units of 2pi/SCALE and weight: Automatic mesh                          
   0.00000000  0.00000000  0.00000000       1.000
 
 k-points in reciprocal lattice and weights: Automatic mesh                          
   0.00000000  0.00000000  0.00000000       1.000
 
 position of ions in fractional coordinates (direct lattice) 
   0.47547100  0.55626000  0.38465300
   0.36907800  0.53906000  0.43641200
   0.54179100  0.45744600  0.39613600
   0.38461900  0.51474100  0.55243500
   0.61299700  0.52481700  0.56496600
   0.45095700  0.41593600  0.56388300
   0.53111600  0.64794100  0.43749600
   0.55736800  0.43311000  0.51215000
   0.54669200  0.62364400  0.55351800
   0.44028400  0.60643000  0.60524300
   0.41490100  0.35665000  0.52940300
   0.46117000  0.40042600  0.63910800
   0.60034800  0.36907000  0.51957800
   0.68182700  0.53600700  0.53118700
   0.62280400  0.50903400  0.64018900
   0.61080000  0.46880600  0.36278200
   0.50550800  0.39805500  0.36207700
   0.46538400  0.57201900  0.30946400
   0.58275500  0.68306700  0.58775000
   0.45052500  0.59044300  0.68036400
   0.39732000  0.67044900  0.59753500
   0.31566200  0.50359800  0.58596500
   0.33322800  0.47946500  0.40225200
   0.32629100  0.60324700  0.42912600
   0.48792300  0.71185500  0.43020800
   0.60015100  0.65882400  0.40403700
 
 position of ions in cartesian coordinates  (Angst):
   9.50942000 11.12520000  7.69306000
   7.38156000 10.78120000  8.72824000
  10.83582000  9.14892000  7.92272000
   7.69238000 10.29482000 11.04870000
  12.25994000 10.49634000 11.29932000
   9.01914000  8.31872000 11.27766000
  10.62232000 12.95882000  8.74992000
  11.14736000  8.66220000 10.24300000
  10.93384000 12.47288000 11.07036000
   8.80568000 12.12860000 12.10486000
   8.29802000  7.13300000 10.58806000
   9.22340000  8.00852000 12.78216000
  12.00696000  7.38140000 10.39156000
  13.63654000 10.72014000 10.62374000
  12.45608000 10.18068000 12.80378000
  12.21600000  9.37612000  7.25564000
  10.11016000  7.96110000  7.24154000
   9.30768000 11.44038000  6.18928000
  11.65510000 13.66134000 11.75500000
   9.01050000 11.80886000 13.60728000
   7.94640000 13.40898000 11.95070000
   6.31324000 10.07196000 11.71930000
   6.66456000  9.58930000  8.04504000
   6.52582000 12.06494000  8.58252000
   9.75846000 14.23710000  8.60416000
  12.00302000 13.17648000  8.08074000
 


--------------------------------------------------------------------------------------------------------


 k-point  1 :   0.0000 0.0000 0.0000  plane waves:  145165

 maximum and minimum number of plane-waves per node :     24209    24180

 maximum number of plane-waves:    145165
 maximum index in each direction: 
   IXMAX=   32   IYMAX=   32   IZMAX=   32
   IXMIN=  -32   IYMIN=  -32   IZMIN=  -32


 parallel 3D FFT for wavefunctions:
    minimum data exchange during FFTs selected (reduces bandwidth)
 parallel 3D FFT for charge:
    minimum data exchange during FFTs selected (reduces bandwidth)


 total amount of memory used by VASP MPI-rank0   131440. kBytes
=======================================================================

   base      :      30000. kBytes
   nonl-proj :      17624. kBytes
   fftplans  :      26957. kBytes
   grid      :      48673. kBytes
   one-center:         40. kBytes
   wavefun   :       8146. kBytes
 
     INWAV:  cpu time    0.0000: real time    0.0000
 Broyden mixing: mesh for mixing (old mesh)
   NGX = 65   NGY = 65   NGZ = 65
  (NGX  =196   NGY  =196   NGZ  =196)
  gives a total of 274625 points

 initial charge density was supplied:
 charge density of overlapping atoms calculated
 number of electron      56.0000000 magnetization 
 keeping initial charge density in first step


--------------------------------------------------------------------------------------------------------


 Maximum index for augmentation-charges          565 (set IRDMAX)


--------------------------------------------------------------------------------------------------------


 First call to EWALD:  gamma=   0.089
 Maximum number of real-space cells 3x 3x 3
 Maximum number of reciprocal cells 3x 3x 3

    FEWALD:  cpu time    0.0040: real time    0.0027


--------------------------------------- Iteration      1(   1)  ---------------------------------------


    POTLOK:  cpu time    1.7927: real time    1.7940
    SETDIJ:  cpu time    0.0100: real time    0.0097
     EDDAV:  cpu time   10.7124: real time   10.7090
       DOS:  cpu time    0.0000: real time    0.0003
    --------------------------------------------
      LOOP:  cpu time   12.5151: real time   12.5130

 eigenvalue-minimisations  :   116
 total energy-change (2. order) : 0.2016960E+03  (-0.1048499E+04)
 number of electron      56.0000000 magnetization 
 augmentation part       56.0000000 magnetization 

 Free energy of the ion-electron system (eV)
  ---------------------------------------------------
  alpha Z        PSCENC =         1.96423985
  Ewald energy   TEWEN  =      2629.98113996
  -Hartree energ DENC   =     -3442.39078689
  -exchange      EXHF   =         0.00000000
  -V(xc)+E(xc)   XCENC  =       -53.16823717
  PAW double counting   =       915.46801746     -752.10009045
  entropy T*S    EENTRO =        -0.43610164
  eigenvalues    EBANDS =      -335.65742324
  atomic energy  EATOM  =      1238.03527989
  Solvation  Ediel_sol  =         0.00000000
  ---------------------------------------------------
  free energy    TOTEN  =       201.69603777 eV

  energy without entropy =      202.13213941  energy(sigma->0) =      201.91408859


--------------------------------------------------------------------------------------------------------




--------------------------------------- Iteration      1(   2)  ---------------------------------------


     EDDAV:  cpu time   12.7841: real time   12.7804
       DOS:  cpu time    0.0010: real time    0.0003
    --------------------------------------------
      LOOP:  cpu time   12.7851: real time   12.7807

 eigenvalue-minimisations  :   144
 total energy-change (2. order) :-0.2309996E+03  (-0.2164108E+03)
 number of electron      56.0000000 magnetization 
 augmentation part       56.0000000 magnetization 

 Free energy of the ion-electron system (eV)
  ---------------------------------------------------
  alpha Z        PSCENC =         1.96423985
  Ewald energy   TEWEN  =      2629.98113996
  -Hartree energ DENC   =     -3442.39078689
  -exchange      EXHF   =         0.00000000
  -V(xc)+E(xc)   XCENC  =       -53.16823717
  PAW double counting   =       915.46801746     -752.10009045
  entropy T*S    EENTRO =        -0.00000000
  eigenvalues    EBANDS =      -567.09312206
  atomic energy  EATOM  =      1238.03527989
  Solvation  Ediel_sol  =         0.00000000
  ---------------------------------------------------
  free energy    TOTEN  =       -29.30355941 eV

  energy without entropy =      -29.30355941  energy(sigma->0) =      -29.30355941


--------------------------------------------------------------------------------------------------------




--------------------------------------- Iteration      1(   3)  ---------------------------------------


     EDDAV:  cpu time   10.6174: real time   10.6144
       DOS:  cpu time    0.0000: real time    0.0003
    --------------------------------------------
      LOOP:  cpu time   10.6174: real time   10.6147

 eigenvalue-minimisations  :   112
 total energy-change (2. order) :-0.7368344E+02  (-0.7351386E+02)
 number of electron      56.0000000 magnetization 
 augmentation part       56.0000000 magnetization 

 Free energy of the ion-electron system (eV)
  ---------------------------------------------------
  alpha Z        PSCENC =         1.96423985
  Ewald energy   TEWEN  =      2629.98113996
  -Hartree energ DENC   =     -3442.39078689
  -exchange      EXHF   =         0.00000000
  -V(xc)+E(xc)   XCENC  =       -53.16823717
  PAW double counting   =       915.46801746     -752.10009045
  entropy T*S    EENTRO =        -0.00000000
  eigenvalues    EBANDS =      -640.77655969
  atomic energy  EATOM  =      1238.03527989
  Solvation  Ediel_sol  =         0.00000000
  ---------------------------------------------------
  free energy    TOTEN  =      -102.98699704 eV

  energy without entropy =     -102.98699704  energy(sigma->0) =     -102.98699704


--------------------------------------------------------------------------------------------------------




--------------------------------------- Iteration      1(   4)  ---------------------------------------


     EDDAV:  cpu time    9.8305: real time    9.8569
       DOS:  cpu time    0.0010: real time    0.0003
    --------------------------------------------
      LOOP:  cpu time    9.8315: real time    9.8573

 eigenvalue-minimisations  :   104
 total energy-change (2. order) :-0.4128402E+01  (-0.4113387E+01)
 number of electron      56.0000000 magnetization 
 augmentation part       56.0000000 magnetization 

 Free energy of the ion-electron system (eV)
  ---------------------------------------------------
  alpha Z        PSCENC =         1.96423985
  Ewald energy   TEWEN  =      2629.98113996
  -Hartree energ DENC   =     -3442.39078689
  -exchange      EXHF   =         0.00000000
  -V(xc)+E(xc)   XCENC  =       -53.16823717
  PAW double counting   =       915.46801746     -752.10009045
  entropy T*S    EENTRO =        -0.00000000
  eigenvalues    EBANDS =      -644.90496121
  atomic energy  EATOM  =      1238.03527989
  Solvation  Ediel_sol  =         0.00000000
  ---------------------------------------------------
  free energy    TOTEN  =      -107.11539856 eV

  energy without entropy =     -107.11539856  energy(sigma->0) =     -107.11539856


--------------------------------------------------------------------------------------------------------




--------------------------------------- Iteration      1(   5)  ---------------------------------------


     EDDAV:  cpu time   12.7701: real time   12.7909
       DOS:  cpu time    0.0010: real time    0.0003
    CHARGE:  cpu time    0.4809: real time    0.4835
    MIXING:  cpu time    0.0430: real time    0.0430
    --------------------------------------------
      LOOP:  cpu time   13.2950: real time   13.3178

 eigenvalue-minimisations  :   144
 total energy-change (2. order) :-0.8006468E-01  (-0.8001905E-01)
 number of electron      56.0000016 magnetization 
 augmentation part       -3.5459635 magnetization 

 Broyden mixing:
  rms(total) = 0.15086E+01    rms(broyden)= 0.15085E+01
  rms(prec ) = 0.16050E+01
  weight for this iteration     100.00

 Free energy of the ion-electron system (eV)
  ---------------------------------------------------
  alpha Z        PSCENC =         1.96423985
  Ewald energy   TEWEN  =      2629.98113996
  -Hartree energ DENC   =     -3442.39078689
  -exchange      EXHF   =         0.00000000
  -V(xc)+E(xc)   XCENC  =       -53.16823717
  PAW double counting   =       915.46801746     -752.10009045
  entropy T*S    EENTRO =        -0.00000000
  eigenvalues    EBANDS =      -644.98502589
  atomic energy  EATOM  =      1238.03527989
  Solvation  Ediel_sol  =         0.00000000
  ---------------------------------------------------
  free energy    TOTEN  =      -107.19546324 eV

  energy without entropy =     -107.19546324  energy(sigma->0) =     -107.19546324


--------------------------------------------------------------------------------------------------------




--------------------------------------- Iteration      1(   6)  ---------------------------------------


    POTLOK:  cpu time    1.7437: real time    1.7509
    SETDIJ:  cpu time    0.0080: real time    0.0075
     EDDAV:  cpu time    9.8195: real time    9.8348
       DOS:  cpu time    0.0010: real time    0.0003
    CHARGE:  cpu time    0.4969: real time    0.4968
    MIXING:  cpu time    0.0440: real time    0.0446
    --------------------------------------------
      LOOP:  cpu time   12.1132: real time   12.1349

 eigenvalue-minimisations  :   104
 total energy-change (2. order) : 0.3237810E+01  (-0.1585627E+00)
 number of electron      56.0000015 magnetization 
 augmentation part       -3.5466960 magnetization 

 Broyden mixing:
  rms(total) = 0.87508E+00    rms(broyden)= 0.87508E+00
  rms(prec ) = 0.93377E+00
  weight for this iteration     100.00

 eigenvalues of (default mixing * dielectric matrix)
  average eigenvalue GAMMA=   2.3103
  2.3103

 Free energy of the ion-electron system (eV)
  ---------------------------------------------------
  alpha Z        PSCENC =         1.96423985
  Ewald energy   TEWEN  =      2629.98113996
  -Hartree energ DENC   =     -3473.82062842
  -exchange      EXHF   =         0.00000000
  -V(xc)+E(xc)   XCENC  =       -49.53103463
  PAW double counting   =      1845.24073193    -1682.63637963
  entropy T*S    EENTRO =        -0.00000000
  eigenvalues    EBANDS =      -613.19100242
  atomic energy  EATOM  =      1238.03527989
  Solvation  Ediel_sol  =         0.00000000
  ---------------------------------------------------
  free energy    TOTEN  =      -103.95765348 eV

  energy without entropy =     -103.95765348  energy(sigma->0) =     -103.95765348


--------------------------------------------------------------------------------------------------------




--------------------------------------- Iteration      1(   7)  ---------------------------------------


    POTLOK:  cpu time    1.7047: real time    1.7066
    SETDIJ:  cpu time    0.0070: real time    0.0075
     EDDAV:  cpu time    9.8115: real time    9.8274
       DOS:  cpu time    0.0000: real time    0.0003
    CHARGE:  cpu time    0.4859: real time    0.4861
    MIXING:  cpu time    0.0470: real time    0.0466
    --------------------------------------------
      LOOP:  cpu time   12.0562: real time   12.0746

 eigenvalue-minimisations  :   104
 total energy-change (2. order) : 0.1697703E+01  (-0.4130964E+00)
 number of electron      56.0000013 magnetization 
 augmentation part       -3.5446296 magnetization 

 Broyden mixing:
  rms(total) = 0.12244E+00    rms(broyden)= 0.12229E+00
  rms(prec ) = 0.15355E+00
  weight for this iteration     100.00

 eigenvalues of (default mixing * dielectric matrix)
  average eigenvalue GAMMA=   1.8330
  1.6805  1.9855

 Free energy of the ion-electron system (eV)
  ---------------------------------------------------
  alpha Z        PSCENC =         1.96423985
  Ewald energy   TEWEN  =      2629.98113996
  -Hartree energ DENC   =     -3529.93023455
  -exchange      EXHF   =         0.00000000
  -V(xc)+E(xc)   XCENC  =       -43.74621152
  PAW double counting   =      3903.84281093    -3742.26698196
  entropy T*S    EENTRO =        -0.00000000
  eigenvalues    EBANDS =      -560.13999269
  atomic energy  EATOM  =      1238.03527989
  Solvation  Ediel_sol  =         0.00000000
  ---------------------------------------------------
  free energy    TOTEN  =      -102.25995011 eV

  energy without entropy =     -102.25995010  energy(sigma->0) =     -102.25995010


--------------------------------------------------------------------------------------------------------




--------------------------------------- Iteration      1(   8)  ---------------------------------------


    POTLOK:  cpu time    1.7087: real time    1.7168
    SETDIJ:  cpu time    0.0070: real time    0.0073
     EDDAV:  cpu time    9.8365: real time    9.8565
       DOS:  cpu time    0.0010: real time    0.0003
    CHARGE:  cpu time    0.4849: real time    0.4850
    MIXING:  cpu time    0.0620: real time    0.0622
    --------------------------------------------
      LOOP:  cpu time   12.1002: real time   12.1281

 eigenvalue-minimisations  :   104
 total energy-change (2. order) : 0.5096270E-01  (-0.2709766E-01)
 number of electron      56.0000013 magnetization 
 augmentation part       -3.5420307 magnetization 

 Broyden mixing:
  rms(total) = 0.62090E-01    rms(broyden)= 0.62075E-01
  rms(prec ) = 0.81549E-01
  weight for this iteration     100.00

 eigenvalues of (default mixing * dielectric matrix)
  average eigenvalue GAMMA=   1.9745
  2.6350  1.6442  1.6442

 Free energy of the ion-electron system (eV)
  ---------------------------------------------------
  alpha Z        PSCENC =         1.96423985
  Ewald energy   TEWEN  =      2629.98113996
  -Hartree energ DENC   =     -3537.61251301
  -exchange      EXHF   =         0.00000000
  -V(xc)+E(xc)   XCENC  =       -43.79480272
  PAW double counting   =      3911.43801595    -3749.77705024
  entropy T*S    EENTRO =        -0.00000000
  eigenvalues    EBANDS =      -552.44329708
  atomic energy  EATOM  =      1238.03527989
  Solvation  Ediel_sol  =         0.00000000
  ---------------------------------------------------
  free energy    TOTEN  =      -102.20898741 eV

  energy without entropy =     -102.20898741  energy(sigma->0) =     -102.20898741


--------------------------------------------------------------------------------------------------------




--------------------------------------- Iteration      1(   9)  ---------------------------------------


    POTLOK:  cpu time    1.7227: real time    1.7297
    SETDIJ:  cpu time    0.0070: real time    0.0076
     EDDAV:  cpu time   10.9833: real time   11.0028
       DOS:  cpu time    0.0000: real time    0.0003
    CHARGE:  cpu time    0.4939: real time    0.4938
    MIXING:  cpu time    0.0520: real time    0.0521
    --------------------------------------------
      LOOP:  cpu time   13.2590: real time   13.2863

 eigenvalue-minimisations  :   120
 total energy-change (2. order) : 0.3598534E-01  (-0.7936513E-02)
 number of electron      56.0000013 magnetization 
 augmentation part       -3.5288693 magnetization 

 Broyden mixing:
  rms(total) = 0.33777E-01    rms(broyden)= 0.33777E-01
  rms(prec ) = 0.45188E-01
  weight for this iteration     100.00

 eigenvalues of (default mixing * dielectric matrix)
  average eigenvalue GAMMA=   1.7457
  2.5160  1.8320  1.8320  0.8029

 Free energy of the ion-electron system (eV)
  ---------------------------------------------------
  alpha Z        PSCENC =         1.96423985
  Ewald energy   TEWEN  =      2629.98113996
  -Hartree energ DENC   =     -3549.55622509
  -exchange      EXHF   =         0.00000000
  -V(xc)+E(xc)   XCENC  =       -43.10771374
  PAW double counting   =      4046.22584259    -3884.59705176
  entropy T*S    EENTRO =        -0.00000000
  eigenvalues    EBANDS =      -541.11851377
  atomic energy  EATOM  =      1238.03527989
  Solvation  Ediel_sol  =         0.00000000
  ---------------------------------------------------
  free energy    TOTEN  =      -102.17300207 eV

  energy without entropy =     -102.17300207  energy(sigma->0) =     -102.17300207


--------------------------------------------------------------------------------------------------------




--------------------------------------- Iteration      1(  10)  ---------------------------------------


    POTLOK:  cpu time    1.7247: real time    1.7293
    SETDIJ:  cpu time    0.0080: real time    0.0074
     EDDAV:  cpu time   10.4154: real time   10.4183
       DOS:  cpu time    0.0010: real time    0.0003
    CHARGE:  cpu time    0.4849: real time    0.4860
    MIXING:  cpu time    0.0550: real time    0.0542
    --------------------------------------------
      LOOP:  cpu time   12.6891: real time   12.6955

 eigenvalue-minimisations  :   112
 total energy-change (2. order) :-0.9778457E-04  (-0.3039593E-03)
 number of electron      56.0000013 magnetization 
 augmentation part       -3.5282029 magnetization 

 Broyden mixing:
  rms(total) = 0.16374E-01    rms(broyden)= 0.16374E-01
  rms(prec ) = 0.29314E-01
  weight for this iteration     100.00

 eigenvalues of (default mixing * dielectric matrix)
  average eigenvalue GAMMA=   1.8422
  2.7100  2.1470  1.0959  1.6289  1.6289

 Free energy of the ion-electron system (eV)
  ---------------------------------------------------
  alpha Z        PSCENC =         1.96423985
  Ewald energy   TEWEN  =      2629.98113996
  -Hartree energ DENC   =     -3551.61805963
  -exchange      EXHF   =         0.00000000
  -V(xc)+E(xc)   XCENC  =       -43.10015543
  PAW double counting   =      3972.34934870    -3810.67640135
  entropy T*S    EENTRO =        -0.00000000
  eigenvalues    EBANDS =      -539.10849184
  atomic energy  EATOM  =      1238.03527989
  Solvation  Ediel_sol  =         0.00000000
  ---------------------------------------------------
  free energy    TOTEN  =      -102.17309986 eV

  energy without entropy =     -102.17309986  energy(sigma->0) =     -102.17309986


--------------------------------------------------------------------------------------------------------




--------------------------------------- Iteration      1(  11)  ---------------------------------------


    POTLOK:  cpu time    1.7327: real time    1.7509
    SETDIJ:  cpu time    0.0070: real time    0.0075
     EDDAV:  cpu time    9.8165: real time    9.8315
       DOS:  cpu time    0.0000: real time    0.0006
    CHARGE:  cpu time    0.4929: real time    0.4935
    MIXING:  cpu time    0.0560: real time    0.0567
    --------------------------------------------
      LOOP:  cpu time   12.1052: real time   12.1407

 eigenvalue-minimisations  :   104
 total energy-change (2. order) : 0.5607063E-04  (-0.6311711E-03)
 number of electron      56.0000013 magnetization 
 augmentation part       -3.5273655 magnetization 

 Broyden mixing:
  rms(total) = 0.79475E-02    rms(broyden)= 0.79473E-02
  rms(prec ) = 0.14785E-01
  weight for this iteration     100.00

 eigenvalues of (default mixing * dielectric matrix)
  average eigenvalue GAMMA=   1.8628
  3.2056  2.5671  1.7386  1.7386  1.0446  0.8825

 Free energy of the ion-electron system (eV)
  ---------------------------------------------------
  alpha Z        PSCENC =         1.96423985
  Ewald energy   TEWEN  =      2629.98113996
  -Hartree energ DENC   =     -3558.22762664
  -exchange      EXHF   =         0.00000000
  -V(xc)+E(xc)   XCENC  =       -42.91816574
  PAW double counting   =      3926.91043724    -3765.19418818
  entropy T*S    EENTRO =        -0.00000000
  eigenvalues    EBANDS =      -532.72416016
  atomic energy  EATOM  =      1238.03527989
  Solvation  Ediel_sol  =         0.00000000
  ---------------------------------------------------
  free energy    TOTEN  =      -102.17304379 eV

  energy without entropy =     -102.17304379  energy(sigma->0) =     -102.17304379


--------------------------------------------------------------------------------------------------------




--------------------------------------- Iteration      1(  12)  ---------------------------------------


    POTLOK:  cpu time    1.7337: real time    1.7369
    SETDIJ:  cpu time    0.0080: real time    0.0075
     EDDAV:  cpu time    9.6815: real time    9.6986
       DOS:  cpu time    0.0010: real time    0.0005
    CHARGE:  cpu time    0.4889: real time    0.4878
    MIXING:  cpu time    0.0590: real time    0.0599
    --------------------------------------------
      LOOP:  cpu time   11.9722: real time   11.9911

 eigenvalue-minimisations  :   102
 total energy-change (2. order) :-0.4023293E-02  (-0.1139032E-03)
 number of electron      56.0000013 magnetization 
 augmentation part       -3.5269857 magnetization 

 Broyden mixing:
  rms(total) = 0.57621E-02    rms(broyden)= 0.57621E-02
  rms(prec ) = 0.10081E-01
  weight for this iteration     100.00

 eigenvalues of (default mixing * dielectric matrix)
  average eigenvalue GAMMA=   2.0834
  4.5852  2.6342  2.2828  1.5752  1.5752  0.9656  0.9656

 Free energy of the ion-electron system (eV)
  ---------------------------------------------------
  alpha Z        PSCENC =         1.96423985
  Ewald energy   TEWEN  =      2629.98113996
  -Hartree energ DENC   =     -3560.71824691
  -exchange      EXHF   =         0.00000000
  -V(xc)+E(xc)   XCENC  =       -42.87144728
  PAW double counting   =      3916.16074721    -3754.43922499
  entropy T*S    EENTRO =        -0.00000000
  eigenvalues    EBANDS =      -530.28955481
  atomic energy  EATOM  =      1238.03527989
  Solvation  Ediel_sol  =         0.00000000
  ---------------------------------------------------
  free energy    TOTEN  =      -102.17706708 eV

  energy without entropy =     -102.17706708  energy(sigma->0) =     -102.17706708


--------------------------------------------------------------------------------------------------------




--------------------------------------- Iteration      1(  13)  ---------------------------------------


    POTLOK:  cpu time    1.7347: real time    1.7384
    SETDIJ:  cpu time    0.0070: real time    0.0076
     EDDAV:  cpu time    9.8075: real time    9.8236
       DOS:  cpu time    0.0010: real time    0.0005
    CHARGE:  cpu time    0.4879: real time    0.4872
    MIXING:  cpu time    0.0660: real time    0.0660
    --------------------------------------------
      LOOP:  cpu time   12.1042: real time   12.1233

 eigenvalue-minimisations  :   104
 total energy-change (2. order) :-0.4768384E-02  (-0.1963843E-03)
 number of electron      56.0000013 magnetization 
 augmentation part       -3.5267700 magnetization 

 Broyden mixing:
  rms(total) = 0.35160E-02    rms(broyden)= 0.35159E-02
  rms(prec ) = 0.52301E-02
  weight for this iteration     100.00

 eigenvalues of (default mixing * dielectric matrix)
  average eigenvalue GAMMA=   2.1980
  5.6662  2.8657  2.3795  1.8072  1.8072  0.9628  0.9628  1.1324

 Free energy of the ion-electron system (eV)
  ---------------------------------------------------
  alpha Z        PSCENC =         1.96423985
  Ewald energy   TEWEN  =      2629.98113996
  -Hartree energ DENC   =     -3563.62665634
  -exchange      EXHF   =         0.00000000
  -V(xc)+E(xc)   XCENC  =       -42.81976551
  PAW double counting   =      3920.08234261    -3758.36867083
  entropy T*S    EENTRO =        -0.00000000
  eigenvalues    EBANDS =      -527.42974509
  atomic energy  EATOM  =      1238.03527989
  Solvation  Ediel_sol  =         0.00000000
  ---------------------------------------------------
  free energy    TOTEN  =      -102.18183546 eV

  energy without entropy =     -102.18183546  energy(sigma->0) =     -102.18183546


--------------------------------------------------------------------------------------------------------




--------------------------------------- Iteration      1(  14)  ---------------------------------------


    POTLOK:  cpu time    1.7287: real time    1.7332
    SETDIJ:  cpu time    0.0070: real time    0.0075
     EDDAV:  cpu time   10.3974: real time   10.4130
       DOS:  cpu time    0.0010: real time    0.0005
    CHARGE:  cpu time    0.4889: real time    0.4908
    MIXING:  cpu time    0.0710: real time    0.0715
    --------------------------------------------
      LOOP:  cpu time   12.6941: real time   12.7165

 eigenvalue-minimisations  :   112
 total energy-change (2. order) :-0.4373093E-02  (-0.3838393E-04)
 number of electron      56.0000013 magnetization 
 augmentation part       -3.5262162 magnetization 

 Broyden mixing:
  rms(total) = 0.15193E-02    rms(broyden)= 0.15193E-02
  rms(prec ) = 0.26967E-02
  weight for this iteration     100.00

 eigenvalues of (default mixing * dielectric matrix)
  average eigenvalue GAMMA=   2.3006
  6.5534  2.8671  2.8671  2.1179  1.6517  1.6517  1.0877  0.9542  0.9542

 Free energy of the ion-electron system (eV)
  ---------------------------------------------------
  alpha Z        PSCENC =         1.96423985
  Ewald energy   TEWEN  =      2629.98113996
  -Hartree energ DENC   =     -3564.35940922
  -exchange      EXHF   =         0.00000000
  -V(xc)+E(xc)   XCENC  =       -42.83098048
  PAW double counting   =      3920.80664351    -3759.09525757
  entropy T*S    EENTRO =        -0.00000000
  eigenvalues    EBANDS =      -526.68786449
  atomic energy  EATOM  =      1238.03527989
  Solvation  Ediel_sol  =         0.00000000
  ---------------------------------------------------
  free energy    TOTEN  =      -102.18620856 eV

  energy without entropy =     -102.18620856  energy(sigma->0) =     -102.18620856


--------------------------------------------------------------------------------------------------------




--------------------------------------- Iteration      1(  15)  ---------------------------------------


    POTLOK:  cpu time    1.7297: real time    1.7403
    SETDIJ:  cpu time    0.0070: real time    0.0074
     EDDAV:  cpu time   10.4284: real time   10.4250
       DOS:  cpu time    0.0000: real time    0.0004
    CHARGE:  cpu time    0.4849: real time    0.4849
    MIXING:  cpu time    0.0790: real time    0.0787
    --------------------------------------------
      LOOP:  cpu time   12.7291: real time   12.7367

 eigenvalue-minimisations  :   112
 total energy-change (2. order) :-0.4257366E-02  (-0.5068891E-04)
 number of electron      56.0000013 magnetization 
 augmentation part       -3.5260111 magnetization 

 Broyden mixing:
  rms(total) = 0.15149E-02    rms(broyden)= 0.15148E-02
  rms(prec ) = 0.19541E-02
  weight for this iteration     100.00

 eigenvalues of (default mixing * dielectric matrix)
  average eigenvalue GAMMA=   2.3051
  6.7435  3.7970  2.6169  2.0311  1.8848  1.8848  1.2247  0.9270  0.9706  0.9706

 Free energy of the ion-electron system (eV)
  ---------------------------------------------------
  alpha Z        PSCENC =         1.96423985
  Ewald energy   TEWEN  =      2629.98113996
  -Hartree energ DENC   =     -3564.56442350
  -exchange      EXHF   =         0.00000000
  -V(xc)+E(xc)   XCENC  =       -42.84038629
  PAW double counting   =      3924.90339399    -3763.19131640
  entropy T*S    EENTRO =        -0.00000000
  eigenvalues    EBANDS =      -526.47839342
  atomic energy  EATOM  =      1238.03527989
  Solvation  Ediel_sol  =         0.00000000
  ---------------------------------------------------
  free energy    TOTEN  =      -102.19046592 eV

  energy without entropy =     -102.19046592  energy(sigma->0) =     -102.19046592


--------------------------------------------------------------------------------------------------------




--------------------------------------- Iteration      1(  16)  ---------------------------------------


    POTLOK:  cpu time    1.7317: real time    1.7574
    SETDIJ:  cpu time    0.0070: real time    0.0073
     EDDAV:  cpu time   10.3444: real time   10.3523
       DOS:  cpu time    0.0000: real time    0.0003
    CHARGE:  cpu time    0.4829: real time    0.4834
    MIXING:  cpu time    0.0860: real time    0.0866
    --------------------------------------------
      LOOP:  cpu time   12.6521: real time   12.6875

 eigenvalue-minimisations  :   112
 total energy-change (2. order) :-0.1015660E-02  (-0.5383566E-05)
 number of electron      56.0000013 magnetization 
 augmentation part       -3.5262206 magnetization 

 Broyden mixing:
  rms(total) = 0.64030E-03    rms(broyden)= 0.64029E-03
  rms(prec ) = 0.96693E-03
  weight for this iteration     100.00

 eigenvalues of (default mixing * dielectric matrix)
  average eigenvalue GAMMA=   2.4103
  7.3345  4.6593  2.6359  2.6359  1.8070  1.8070  1.3749  1.3749  0.9621  0.9621
  0.9598

 Free energy of the ion-electron system (eV)
  ---------------------------------------------------
  alpha Z        PSCENC =         1.96423985
  Ewald energy   TEWEN  =      2629.98113996
  -Hartree energ DENC   =     -3564.66868572
  -exchange      EXHF   =         0.00000000
  -V(xc)+E(xc)   XCENC  =       -42.83830202
  PAW double counting   =      3924.63106373    -3762.91779722
  entropy T*S    EENTRO =        -0.00000000
  eigenvalues    EBANDS =      -526.37842005
  atomic energy  EATOM  =      1238.03527989
  Solvation  Ediel_sol  =         0.00000000
  ---------------------------------------------------
  free energy    TOTEN  =      -102.19148158 eV

  energy without entropy =     -102.19148158  energy(sigma->0) =     -102.19148158


--------------------------------------------------------------------------------------------------------




--------------------------------------- Iteration      1(  17)  ---------------------------------------


    POTLOK:  cpu time    1.7227: real time    1.7226
    SETDIJ:  cpu time    0.0070: real time    0.0074
     EDDAV:  cpu time    9.8245: real time    9.8268
       DOS:  cpu time    0.0010: real time    0.0004
    CHARGE:  cpu time    0.4859: real time    0.4864
    MIXING:  cpu time    0.0960: real time    0.0958
    --------------------------------------------
      LOOP:  cpu time   12.1372: real time   12.1395

 eigenvalue-minimisations  :   104
 total energy-change (2. order) :-0.1044777E-02  (-0.8659482E-05)
 number of electron      56.0000013 magnetization 
 augmentation part       -3.5264017 magnetization 

 Broyden mixing:
  rms(total) = 0.33013E-03    rms(broyden)= 0.33009E-03
  rms(prec ) = 0.47320E-03
  weight for this iteration     100.00

 eigenvalues of (default mixing * dielectric matrix)
  average eigenvalue GAMMA=   2.3877
  7.5375  4.9354  2.6887  2.6887  1.9401  1.9401  1.4918  1.4918  1.0143  1.0143
  0.9547  0.9547

 Free energy of the ion-electron system (eV)
  ---------------------------------------------------
  alpha Z        PSCENC =         1.96423985
  Ewald energy   TEWEN  =      2629.98113996
  -Hartree energ DENC   =     -3564.68533065
  -exchange      EXHF   =         0.00000000
  -V(xc)+E(xc)   XCENC  =       -42.84100468
  PAW double counting   =      3922.70541541    -3760.99103642
  entropy T*S    EENTRO =        -0.00000000
  eigenvalues    EBANDS =      -526.36122973
  atomic energy  EATOM  =      1238.03527989
  Solvation  Ediel_sol  =         0.00000000
  ---------------------------------------------------
  free energy    TOTEN  =      -102.19252636 eV

  energy without entropy =     -102.19252636  energy(sigma->0) =     -102.19252636


--------------------------------------------------------------------------------------------------------




--------------------------------------- Iteration      1(  18)  ---------------------------------------


    POTLOK:  cpu time    1.7257: real time    1.7265
    SETDIJ:  cpu time    0.0080: real time    0.0075
     EDDAV:  cpu time    9.8285: real time    9.8408
       DOS:  cpu time    0.0000: real time    0.0003
    CHARGE:  cpu time    0.4889: real time    0.4895
    MIXING:  cpu time    0.1070: real time    0.1070
    --------------------------------------------
      LOOP:  cpu time   12.1582: real time   12.1716

 eigenvalue-minimisations  :   104
 total energy-change (2. order) :-0.2694461E-03  (-0.8555974E-06)
 number of electron      56.0000013 magnetization 
 augmentation part       -3.5263846 magnetization 

 Broyden mixing:
  rms(total) = 0.18106E-03    rms(broyden)= 0.18103E-03
  rms(prec ) = 0.26927E-03
  weight for this iteration     100.00

 eigenvalues of (default mixing * dielectric matrix)
  average eigenvalue GAMMA=   2.4861
  8.1319  5.7705  3.1695  2.5957  2.4021  1.7847  1.7847  1.3829  1.3829  0.9613
  0.9613  0.9957  0.9957

 Free energy of the ion-electron system (eV)
  ---------------------------------------------------
  alpha Z        PSCENC =         1.96423985
  Ewald energy   TEWEN  =      2629.98113996
  -Hartree energ DENC   =     -3564.71972333
  -exchange      EXHF   =         0.00000000
  -V(xc)+E(xc)   XCENC  =       -42.84038455
  PAW double counting   =      3922.50833055    -3760.79449850
  entropy T*S    EENTRO =        -0.00000000
  eigenvalues    EBANDS =      -526.32717967
  atomic energy  EATOM  =      1238.03527989
  Solvation  Ediel_sol  =         0.00000000
  ---------------------------------------------------
  free energy    TOTEN  =      -102.19279581 eV

  energy without entropy =     -102.19279581  energy(sigma->0) =     -102.19279581


--------------------------------------------------------------------------------------------------------




--------------------------------------- Iteration      1(  19)  ---------------------------------------


    POTLOK:  cpu time    1.7347: real time    1.7342
    SETDIJ:  cpu time    0.0070: real time    0.0074
     EDDAV:  cpu time    9.2496: real time    9.2521
       DOS:  cpu time    0.0010: real time    0.0004
    CHARGE:  cpu time    0.4909: real time    0.4911
    MIXING:  cpu time    0.1180: real time    0.1183
    --------------------------------------------
      LOOP:  cpu time   11.6012: real time   11.6035

 eigenvalue-minimisations  :    96
 total energy-change (2. order) :-0.1703924E-03  (-0.6347931E-06)
 number of electron      56.0000013 magnetization 
 augmentation part       -3.5264069 magnetization 

 Broyden mixing:
  rms(total) = 0.17419E-03    rms(broyden)= 0.17418E-03
  rms(prec ) = 0.21484E-03
  weight for this iteration     100.00

 eigenvalues of (default mixing * dielectric matrix)
  average eigenvalue GAMMA=   2.4746
  8.3412  6.0843  3.3328  2.6827  2.0103  2.0103  1.7678  1.7678  1.5281  1.2809
  0.9877  0.9877  0.9314  0.9314

 Free energy of the ion-electron system (eV)
  ---------------------------------------------------
  alpha Z        PSCENC =         1.96423985
  Ewald energy   TEWEN  =      2629.98113996
  -Hartree energ DENC   =     -3564.73725372
  -exchange      EXHF   =         0.00000000
  -V(xc)+E(xc)   XCENC  =       -42.83913372
  PAW double counting   =      3922.53542828    -3760.82187299
  entropy T*S    EENTRO =        -0.00000000
  eigenvalues    EBANDS =      -526.31079374
  atomic energy  EATOM  =      1238.03527989
  Solvation  Ediel_sol  =         0.00000000
  ---------------------------------------------------
  free energy    TOTEN  =      -102.19296620 eV

  energy without entropy =     -102.19296620  energy(sigma->0) =     -102.19296620


--------------------------------------------------------------------------------------------------------




--------------------------------------- Iteration      1(  20)  ---------------------------------------


    POTLOK:  cpu time    1.7357: real time    1.7366
    SETDIJ:  cpu time    0.0070: real time    0.0074
     EDDAV:  cpu time    8.6787: real time    8.6811
       DOS:  cpu time    0.0000: real time    0.0004
    CHARGE:  cpu time    0.4889: real time    0.4893
    MIXING:  cpu time    0.1310: real time    0.1303
    --------------------------------------------
      LOOP:  cpu time   11.0413: real time   11.0451

 eigenvalue-minimisations  :    88
 total energy-change (2. order) :-0.5321957E-04  (-0.1039820E-06)
 number of electron      56.0000013 magnetization 
 augmentation part       -3.5263902 magnetization 

 Broyden mixing:
  rms(total) = 0.57015E-04    rms(broyden)= 0.57014E-04
  rms(prec ) = 0.82735E-04
  weight for this iteration     100.00

 eigenvalues of (default mixing * dielectric matrix)
  average eigenvalue GAMMA=   2.5108
  8.6006  6.3205  3.9467  2.7035  2.7035  1.8273  1.8273  1.8916  1.4075  1.4075
  1.2073  0.9789  0.9789  0.9617  0.8997

 Free energy of the ion-electron system (eV)
  ---------------------------------------------------
  alpha Z        PSCENC =         1.96423985
  Ewald energy   TEWEN  =      2629.98113996
  -Hartree energ DENC   =     -3564.74026139
  -exchange      EXHF   =         0.00000000
  -V(xc)+E(xc)   XCENC  =       -42.84012172
  PAW double counting   =      3922.37137742    -3760.65780573
  entropy T*S    EENTRO =        -0.00000000
  eigenvalues    EBANDS =      -526.30686770
  atomic energy  EATOM  =      1238.03527989
  Solvation  Ediel_sol  =         0.00000000
  ---------------------------------------------------
  free energy    TOTEN  =      -102.19301942 eV

  energy without entropy =     -102.19301942  energy(sigma->0) =     -102.19301942


--------------------------------------------------------------------------------------------------------




--------------------------------------- Iteration      1(  21)  ---------------------------------------


    POTLOK:  cpu time    1.7257: real time    1.7274
    SETDIJ:  cpu time    0.0080: real time    0.0075
     EDDAV:  cpu time    8.0578: real time    8.0754
       DOS:  cpu time    0.0010: real time    0.0003
    CHARGE:  cpu time    0.4979: real time    0.4983
    MIXING:  cpu time    0.1430: real time    0.1445
    --------------------------------------------
      LOOP:  cpu time   10.4334: real time   10.4534

 eigenvalue-minimisations  :    80
 total energy-change (2. order) :-0.2691410E-04  (-0.8484053E-07)
 number of electron      56.0000013 magnetization 
 augmentation part       -3.5263744 magnetization 

 Broyden mixing:
  rms(total) = 0.56429E-04    rms(broyden)= 0.56426E-04
  rms(prec ) = 0.71674E-04
  weight for this iteration     100.00

 eigenvalues of (default mixing * dielectric matrix)
  average eigenvalue GAMMA=   2.5010
  8.5463  6.6220  4.0920  2.9130  2.6561  2.0014  2.0014  1.7103  1.7103  1.6723
  1.1429  0.9440  0.9440  0.9824  1.0390  1.0390

 Free energy of the ion-electron system (eV)
  ---------------------------------------------------
  alpha Z        PSCENC =         1.96423985
  Ewald energy   TEWEN  =      2629.98113996
  -Hartree energ DENC   =     -3564.74774050
  -exchange      EXHF   =         0.00000000
  -V(xc)+E(xc)   XCENC  =       -42.84010862
  PAW double counting   =      3922.50489515    -3760.79139846
  entropy T*S    EENTRO =        -0.00000000
  eigenvalues    EBANDS =      -526.29935360
  atomic energy  EATOM  =      1238.03527989
  Solvation  Ediel_sol  =         0.00000000
  ---------------------------------------------------
  free energy    TOTEN  =      -102.19304633 eV

  energy without entropy =     -102.19304633  energy(sigma->0) =     -102.19304633


--------------------------------------------------------------------------------------------------------




--------------------------------------- Iteration      1(  22)  ---------------------------------------


    POTLOK:  cpu time    1.7447: real time    1.7457
    SETDIJ:  cpu time    0.0080: real time    0.0075
     EDDAV:  cpu time    8.6737: real time    8.6714
       DOS:  cpu time    0.0000: real time    0.0004
    CHARGE:  cpu time    0.4889: real time    0.4884
    MIXING:  cpu time    0.1520: real time    0.1518
    --------------------------------------------
      LOOP:  cpu time   11.0673: real time   11.0653

 eigenvalue-minimisations  :    88
 total energy-change (2. order) :-0.7530370E-05  (-0.1808447E-07)
 number of electron      56.0000013 magnetization 
 augmentation part       -3.5263844 magnetization 

 Broyden mixing:
  rms(total) = 0.19075E-04    rms(broyden)= 0.19075E-04
  rms(prec ) = 0.26943E-04
  weight for this iteration     100.00

 eigenvalues of (default mixing * dielectric matrix)
  average eigenvalue GAMMA=   2.5140
  8.8105  6.7360  4.6034  3.1354  2.5390  2.5390  1.8645  1.8645  1.6717  1.6717
  1.2164  1.2164  0.9608  0.9608  0.9984  0.9744  0.9744

 Free energy of the ion-electron system (eV)
  ---------------------------------------------------
  alpha Z        PSCENC =         1.96423985
  Ewald energy   TEWEN  =      2629.98113996
  -Hartree energ DENC   =     -3564.74602144
  -exchange      EXHF   =         0.00000000
  -V(xc)+E(xc)   XCENC  =       -42.83999067
  PAW double counting   =      3922.55390400    -3760.84031983
  entropy T*S    EENTRO =        -0.00000000
  eigenvalues    EBANDS =      -526.30128561
  atomic energy  EATOM  =      1238.03527989
  Solvation  Ediel_sol  =         0.00000000
  ---------------------------------------------------
  free energy    TOTEN  =      -102.19305386 eV

  energy without entropy =     -102.19305386  energy(sigma->0) =     -102.19305386


--------------------------------------------------------------------------------------------------------




--------------------------------------- Iteration      1(  23)  ---------------------------------------


    POTLOK:  cpu time    1.7237: real time    1.7233
    SETDIJ:  cpu time    0.0080: real time    0.0076
     EDDAV:  cpu time    8.0928: real time    8.0905
       DOS:  cpu time    0.0000: real time    0.0003
    CHARGE:  cpu time    0.4869: real time    0.4867
    MIXING:  cpu time    0.1670: real time    0.1668
    --------------------------------------------
      LOOP:  cpu time   10.4784: real time   10.4751

 eigenvalue-minimisations  :    80
 total energy-change (2. order) :-0.3591243E-05  (-0.8643644E-08)
 number of electron      56.0000013 magnetization 
 augmentation part       -3.5263927 magnetization 

 Broyden mixing:
  rms(total) = 0.16264E-04    rms(broyden)= 0.16263E-04
  rms(prec ) = 0.20828E-04
  weight for this iteration     100.00

 eigenvalues of (default mixing * dielectric matrix)
  average eigenvalue GAMMA=   2.4823
  8.8687  6.7867  4.7078  3.0839  2.5806  2.5806  1.9865  1.9865  1.6591  1.6591
  1.5667  1.1593  1.0959  1.0959  0.9356  0.9356  0.9968  0.9968

 Free energy of the ion-electron system (eV)
  ---------------------------------------------------
  alpha Z        PSCENC =         1.96423985
  Ewald energy   TEWEN  =      2629.98113996
  -Hartree energ DENC   =     -3564.74527045
  -exchange      EXHF   =         0.00000000
  -V(xc)+E(xc)   XCENC  =       -42.84008380
  PAW double counting   =      3922.51268716    -3760.79906576
  entropy T*S    EENTRO =        -0.00000000
  eigenvalues    EBANDS =      -526.30198431
  atomic energy  EATOM  =      1238.03527989
  Solvation  Ediel_sol  =         0.00000000
  ---------------------------------------------------
  free energy    TOTEN  =      -102.19305745 eV

  energy without entropy =     -102.19305745  energy(sigma->0) =     -102.19305745


--------------------------------------------------------------------------------------------------------




--------------------------------------- Iteration      1(  24)  ---------------------------------------


    POTLOK:  cpu time    1.7327: real time    1.7324
    SETDIJ:  cpu time    0.0080: real time    0.0075
     EDDAV:  cpu time    8.0598: real time    8.0571
       DOS:  cpu time    0.0000: real time    0.0003
    CHARGE:  cpu time    0.4899: real time    0.4891
    MIXING:  cpu time    0.1800: real time    0.1796
    --------------------------------------------
      LOOP:  cpu time   10.4704: real time   10.4659

 eigenvalue-minimisations  :    80
 total energy-change (2. order) :-0.2368199E-05  (-0.3049312E-08)
 number of electron      56.0000013 magnetization 
 augmentation part       -3.5263920 magnetization 

 Broyden mixing:
  rms(total) = 0.80400E-05    rms(broyden)= 0.80397E-05
  rms(prec ) = 0.10427E-04
  weight for this iteration     100.00

 eigenvalues of (default mixing * dielectric matrix)
  average eigenvalue GAMMA=   2.5417
  8.8496  7.0845  5.3562  3.7938  2.9009  2.4293  2.4293  1.8643  1.8643  1.6767
  1.6767  1.2136  1.2136  1.1048  0.9762  0.9762  0.9417  0.9417  0.9993

 Free energy of the ion-electron system (eV)
  ---------------------------------------------------
  alpha Z        PSCENC =         1.96423985
  Ewald energy   TEWEN  =      2629.98113996
  -Hartree energ DENC   =     -3564.74594327
  -exchange      EXHF   =         0.00000000
  -V(xc)+E(xc)   XCENC  =       -42.84009621
  PAW double counting   =      3922.46191393    -3760.74832158
  entropy T*S    EENTRO =        -0.00000000
  eigenvalues    EBANDS =      -526.30127239
  atomic energy  EATOM  =      1238.03527989
  Solvation  Ediel_sol  =         0.00000000
  ---------------------------------------------------
  free energy    TOTEN  =      -102.19305982 eV

  energy without entropy =     -102.19305982  energy(sigma->0) =     -102.19305982


--------------------------------------------------------------------------------------------------------




--------------------------------------- Iteration      1(  25)  ---------------------------------------


    POTLOK:  cpu time    1.7397: real time    1.7394
    SETDIJ:  cpu time    0.0080: real time    0.0076
     EDDAV:  cpu time    8.0988: real time    8.0976
       DOS:  cpu time    0.0010: real time    0.0003
    --------------------------------------------
      LOOP:  cpu time    9.8475: real time    9.8448

 eigenvalue-minimisations  :    80
 total energy-change (2. order) :-0.8514317E-06  (-0.1603453E-08)
 number of electron      56.0000013 magnetization 
 augmentation part       -3.5263920 magnetization 

 Free energy of the ion-electron system (eV)
  ---------------------------------------------------
  alpha Z        PSCENC =         1.96423985
  Ewald energy   TEWEN  =      2629.98113996
  -Hartree energ DENC   =     -3564.74679663
  -exchange      EXHF   =         0.00000000
  -V(xc)+E(xc)   XCENC  =       -42.84006354
  PAW double counting   =      3922.47332178    -3760.75973543
  entropy T*S    EENTRO =        -0.00000000
  eigenvalues    EBANDS =      -526.30044655
  atomic energy  EATOM  =      1238.03527989
  Solvation  Ediel_sol  =         0.00000000
  ---------------------------------------------------
  free energy    TOTEN  =      -102.19306067 eV

  energy without entropy =     -102.19306067  energy(sigma->0) =     -102.19306067


--------------------------------------------------------------------------------------------------------




 average (electrostatic) potential at core
  the test charge radii are     0.9892  1.1631  0.5201
  (the norm of the test charge is              1.0000)
       1 -93.3957       2 -93.4248       3 -93.4712       4 -93.3957       5 -93.5047
       6 -93.4712       7 -40.4427       8 -40.3453       9 -40.4261      10 -40.4426
      11 -40.6977      12 -40.7020      13 -41.0815      14 -40.6912      15 -40.6908
      16 -40.7025      17 -40.6987      18 -40.6983      19 -41.0558      20 -41.0625
      21 -41.0677      22 -40.6983      23 -40.7010      24 -40.7113      25 -41.0675
      26 -41.0626
 
 
 
 E-fermi :  -5.3871     XC(G=0):  -0.6079     alpha+bet : -0.3388


 k-point     1 :       0.0000    0.0000    0.0000
  band No.  band energies     occupation 
      1     -15.2402      2.00000
      2     -14.3490      2.00000
      3     -14.0686      2.00000
      4     -13.8469      2.00000
      5     -12.8940      2.00000
      6     -12.6989      2.00000
      7     -11.7538      2.00000
      8     -11.4399      2.00000
      9     -11.3358      2.00000
     10     -10.4205      2.00000
     11      -8.9685      2.00000
     12      -8.6318      2.00000
     13      -8.6220      2.00000
     14      -8.6152      2.00000
     15      -8.2025      2.00000
     16      -8.1898      2.00000
     17      -8.1823      2.00000
     18      -7.8682      2.00000
     19      -7.8571      2.00000
     20      -7.8548      2.00000
     21      -6.7852      2.00000
     22      -6.7725      2.00000
     23      -6.4872      2.00000
     24      -6.4703      2.00000
     25      -6.4666      2.00000
     26      -6.3805      2.00000
     27      -6.3762      2.00000
     28      -6.3719      2.00000
     29      -1.7246      0.00000
     30      -1.4447      0.00000
     31      -1.3109      0.00000
     32      -1.2745      0.00000
     33      -1.1796      0.00000
     34      -1.1161      0.00000
     35      -1.0496      0.00000
     36      -0.9347      0.00000
     37      -0.8801      0.00000
     38      -0.5677      0.00000
     39      -0.4349      0.00000
     40      -0.3869      0.00000
     41      -0.2527      0.00000
     42      -0.2247      0.00000


--------------------------------------------------------------------------------------------------------


 soft charge-density along one line, spin component           1
         0         1         2         3         4         5         6         7         8         9
 total charge-density along one line
 
 pseudopotential strength for first ion, spin component:           1
 19.613  27.371   0.001   0.003   0.001   0.003   0.005   0.002
 27.371  38.202   0.002   0.004   0.002   0.004   0.008   0.003
  0.001   0.002   4.359   0.000   0.000   8.131   0.000   0.001
  0.003   0.004   0.000   4.359   0.000   0.000   8.131   0.000
  0.001   0.002   0.000   0.000   4.358   0.001   0.000   8.131
  0.003   0.004   8.131   0.000   0.001  15.178   0.001   0.001
  0.005   0.008   0.000   8.131   0.000   0.001  15.177   0.001
  0.002   0.003   0.001   0.000   8.131   0.001   0.001  15.177
 total augmentation occupancy for first ion, spin component:           1
  5.560  -2.039   0.051  -0.338  -0.054  -0.015   0.101   0.016
 -2.039   0.811  -0.035   0.205   0.032   0.008  -0.045  -0.006
  0.051  -0.035   2.839  -0.111  -0.030  -0.616   0.038   0.009
 -0.338   0.205  -0.111   3.285   0.051   0.039  -0.776  -0.020
 -0.054   0.032  -0.030   0.051   2.843   0.009  -0.020  -0.615
 -0.015   0.008  -0.616   0.039   0.009   0.140  -0.011  -0.002
  0.101  -0.045   0.038  -0.776  -0.020  -0.011   0.186   0.006
  0.016  -0.006   0.009  -0.020  -0.615  -0.002   0.006   0.139


------------------------ aborting loop because EDIFF is reached ----------------------------------------


    CHARGE:  cpu time    0.4889: real time    0.4891
    FORLOC:  cpu time    0.1710: real time    0.1709
    FORNL :  cpu time    1.0768: real time    1.0759
    STRESS:  cpu time    7.9008: real time    7.8975
    FORCOR:  cpu time    1.7227: real time    1.7217
    FORHAR:  cpu time    0.5829: real time    0.5830
    MIXING:  cpu time    0.1900: real time    0.1905
    OFIELD:  cpu time    0.0000: real time    0.0000

  FORCE on cell =-STRESS in cart. coord.  units (eV):
  Direction    XX          YY          ZZ          XY          YZ          ZX
  --------------------------------------------------------------------------------------
  Alpha Z     1.96424     1.96424     1.96424
  Ewald     876.64706   876.62235   876.71007    -0.21850     0.02563    -0.50464
  Hartree  1188.74033  1187.49978  1188.50690    -0.24709    -0.16919    -0.33336
  E(xc)    -177.20099  -177.27655  -177.13563     0.09548     0.01594    -0.01393
  Local   -2568.71491 -2567.53683 -2568.50257     0.52238     0.14060     0.82684
  n-local   272.60482   273.12119   272.27355    -0.50753    -0.06015     0.06609
  augment   -27.47085   -27.48223   -27.46675    -0.00245    -0.00576    -0.00487
  Kinetic   429.47619   429.19053   429.60830     0.24286     0.02869    -0.01215
  Fock        0.00000     0.00000     0.00000     0.00000     0.00000     0.00000
  -------------------------------------------------------------------------------------
  Total      -3.95410    -3.89752    -4.04189    -0.11484    -0.02424     0.02397
  in kB      -0.79190    -0.78057    -0.80948    -0.02300    -0.00485     0.00480
  external pressure =       -0.79 kB  Pullay stress =        0.00 kB


 VOLUME and BASIS-vectors are now :
 -----------------------------------------------------------------------------
  energy-cutoff  :      400.00
[...]
    SETDIJ:  cpu time    0.0110: real time    0.0110
     EDDAV:  cpu time   11.0393: real time   11.0390
       DOS:  cpu time    0.0000: real time    0.0003
    CHARGE:  cpu time    0.4929: real time    0.4925
    MIXING:  cpu time    0.0460: real time    0.0464
    --------------------------------------------
      LOOP:  cpu time   13.3280: real time   13.3282

 eigenvalue-minimisations  :   120
 total energy-change (2. order) : 0.3665573E-05  (-0.1306363E-05)
 number of electron      55.9999970 magnetization 
 augmentation part       -3.5195913 magnetization 

 Broyden mixing:
  rms(total) = 0.11692E-02    rms(broyden)= 0.11692E-02
  rms(prec ) = 0.12475E-02
  weight for this iteration     100.00

 eigenvalues of (default mixing * dielectric matrix)
  average eigenvalue GAMMA=   1.5743
  1.0437  2.1050

 Free energy of the ion-electron system (eV)
  ---------------------------------------------------
  alpha Z        PSCENC =         1.96423985
  Ewald energy   TEWEN  =      2639.63387925
  -Hartree energ DENC   =     -3573.70636282
  -exchange      EXHF   =         0.00000000
  -V(xc)+E(xc)   XCENC  =       -42.13708388
  PAW double counting   =      4183.76459895    -4022.14871260
  entropy T*S    EENTRO =        -0.00000000
  eigenvalues    EBANDS =      -527.88371914
  atomic energy  EATOM  =      1238.03527989
  Solvation  Ediel_sol  =         0.00000000
  ---------------------------------------------------
  free energy    TOTEN  =      -102.47788050 eV

  energy without entropy =     -102.47788050  energy(sigma->0) =     -102.47788050


--------------------------------------------------------------------------------------------------------




--------------------------------------- Iteration     18(   4)  ---------------------------------------


    POTLOK:  cpu time    1.7427: real time    1.7425
    SETDIJ:  cpu time    0.0070: real time    0.0074
     EDDAV:  cpu time   10.4354: real time   10.4359
       DOS:  cpu time    0.0000: real time    0.0003
    CHARGE:  cpu time    0.4809: real time    0.4806
    MIXING:  cpu time    0.0550: real time    0.0550
    --------------------------------------------
      LOOP:  cpu time   12.7211: real time   12.7217

 eigenvalue-minimisations  :   112
 total energy-change (2. order) : 0.1826269E-05  (-0.6017434E-06)
 number of electron      55.9999970 magnetization 
 augmentation part       -3.5196490 magnetization 

 Broyden mixing:
  rms(total) = 0.20767E-03    rms(broyden)= 0.20763E-03
  rms(prec ) = 0.25330E-03
  weight for this iteration     100.00

 eigenvalues of (default mixing * dielectric matrix)
  average eigenvalue GAMMA=   1.5186
  2.3568  1.0995  1.0995

 Free energy of the ion-electron system (eV)
  ---------------------------------------------------
  alpha Z        PSCENC =         1.96423985
  Ewald energy   TEWEN  =      2639.63387925
  -Hartree energ DENC   =     -3573.69400240
  -exchange      EXHF   =         0.00000000
  -V(xc)+E(xc)   XCENC  =       -42.13757985
  PAW double counting   =      4183.22313409    -4021.60689261
  entropy T*S    EENTRO =        -0.00000000
  eigenvalues    EBANDS =      -527.89593688
  atomic energy  EATOM  =      1238.03527989
  Solvation  Ediel_sol  =         0.00000000
  ---------------------------------------------------
  free energy    TOTEN  =      -102.47787868 eV

  energy without entropy =     -102.47787868  energy(sigma->0) =     -102.47787868


--------------------------------------------------------------------------------------------------------




--------------------------------------- Iteration     18(   5)  ---------------------------------------


    POTLOK:  cpu time    1.7367: real time    1.7360
    SETDIJ:  cpu time    0.0070: real time    0.0075
     EDDAV:  cpu time    8.6887: real time    8.6893
       DOS:  cpu time    0.0010: real time    0.0002
    --------------------------------------------
      LOOP:  cpu time   10.4334: real time   10.4330

 eigenvalue-minimisations  :    88
 total energy-change (2. order) : 0.2890920E-06  (-0.1237661E-06)
 number of electron      55.9999970 magnetization 
 augmentation part       -3.5196490 magnetization 

 Free energy of the ion-electron system (eV)
  ---------------------------------------------------
  alpha Z        PSCENC =         1.96423985
  Ewald energy   TEWEN  =      2639.63387925
  -Hartree energ DENC   =     -3573.69212675
  -exchange      EXHF   =         0.00000000
  -V(xc)+E(xc)   XCENC  =       -42.13768073
  PAW double counting   =      4183.14639056    -4021.53015648
  entropy T*S    EENTRO =        -0.00000000
  eigenvalues    EBANDS =      -527.89770397
  atomic energy  EATOM  =      1238.03527989
  Solvation  Ediel_sol  =         0.00000000
  ---------------------------------------------------
  free energy    TOTEN  =      -102.47787839 eV

  energy without entropy =     -102.47787839  energy(sigma->0) =     -102.47787839


--------------------------------------------------------------------------------------------------------




 average (electrostatic) potential at core
  the test charge radii are     0.9892  1.1631  0.5201
  (the norm of the test charge is              1.0000)
       1 -93.3247       2 -93.2731       3 -93.3386       4 -93.3247       5 -93.4142
       6 -93.3387       7 -40.4307       8 -40.3353       9 -40.4490      10 -40.4308
      11 -40.8413      12 -40.8463      13 -40.9978      14 -40.8471      15 -40.8471
      16 -40.8471      17 -40.8410      18 -40.8839      19 -41.0131      20 -40.9740
      21 -40.9711      22 -40.8837      23 -40.8341      24 -40.8352      25 -40.9715
      26 -40.9740
 
 
 
 E-fermi :  -5.3535     XC(G=0):  -0.6052     alpha+bet : -0.3388


 k-point     1 :       0.0000    0.0000    0.0000
  band No.  band energies     occupation 
      1     -15.1404      2.00000
      2     -14.2522      2.00000
      3     -14.0588      2.00000
      4     -13.9569      2.00000
      5     -12.9758      2.00000
      6     -12.8165      2.00000
      7     -11.8137      2.00000
      8     -11.5375      2.00000
      9     -11.4547      2.00000
     10     -10.5541      2.00000
     11      -9.0125      2.00000
     12      -8.7078      2.00000
     13      -8.6510      2.00000
     14      -8.5860      2.00000
     15      -8.3017      2.00000
     16      -8.1818      2.00000
     17      -8.1042      2.00000
     18      -7.9457      2.00000
     19      -7.9141      2.00000
     20      -7.8037      2.00000
     21      -6.8516      2.00000
     22      -6.8080      2.00000
     23      -6.5524      2.00000
     24      -6.4653      2.00000
     25      -6.4497      2.00000
     26      -6.4025      2.00000
     27      -6.3454      2.00000
     28      -6.3047      2.00000
     29      -1.6662      0.00000
     30      -1.4441      0.00000
     31      -1.3435      0.00000
     32      -1.3091      0.00000
     33      -1.2605      0.00000
     34      -1.1510      0.00000
     35      -0.9932      0.00000
     36      -0.8535      0.00000
     37      -0.8430      0.00000
     38      -0.4182      0.00000
     39      -0.3568      0.00000
     40      -0.3211      0.00000
     41      -0.2267      0.00000
     42      -0.1295      0.00000


--------------------------------------------------------------------------------------------------------


 soft charge-density along one line, spin component           1
         0         1         2         3         4         5         6         7         8         9
 total charge-density along one line
 
 pseudopotential strength for first ion, spin component:           1
 19.613  27.371   0.001   0.003   0.001   0.003   0.006   0.002
 27.371  38.201   0.002   0.004   0.002   0.004   0.008   0.003
  0.001   0.002   4.361   0.000   0.000   8.135   0.000   0.000
  0.003   0.004   0.000   4.362   0.000   0.000   8.136   0.000
  0.001   0.002   0.000   0.000   4.361   0.000   0.000   8.135
  0.003   0.004   8.135   0.000   0.000  15.186   0.000   0.001
  0.006   0.008   0.000   8.136   0.000   0.000  15.186   0.001
  0.002   0.003   0.000   0.000   8.135   0.001   0.001  15.185
 total augmentation occupancy for first ion, spin component:           1
  5.924  -2.237  -0.014  -0.462  -0.115   0.008   0.144   0.036
 -2.237   0.905  -0.005   0.264   0.061  -0.001  -0.065  -0.015
 -0.014  -0.005   2.935  -0.178  -0.092  -0.646   0.057   0.025
 -0.462   0.264  -0.178   3.515   0.050   0.058  -0.845  -0.021
 -0.115   0.061  -0.092   0.050   2.993   0.025  -0.021  -0.659
  0.008  -0.001  -0.646   0.058   0.025   0.149  -0.016  -0.006
  0.144  -0.065   0.057  -0.845  -0.021  -0.016   0.206   0.007
  0.036  -0.015   0.025  -0.021  -0.659  -0.006   0.007   0.152


------------------------ aborting loop because EDIFF is reached ----------------------------------------


    CHARGE:  cpu time    0.4829: real time    0.4837
    FORLOC:  cpu time    0.1700: real time    0.1702
    FORNL :  cpu time    1.0798: real time    1.0807
    STRESS:  cpu time    7.9648: real time    7.9796
    FORCOR:  cpu time    1.7197: real time    1.7234
    FORHAR:  cpu time    0.5839: real time    0.5841
    MIXING:  cpu time    0.0520: real time    0.0511
    OFIELD:  cpu time    0.0000: real time    0.0000

  FORCE on cell =-STRESS in cart. coord.  units (eV):
  Direction    XX          YY          ZZ          XY          YZ          ZX
  --------------------------------------------------------------------------------------
  Alpha Z     1.96424     1.96424     1.96424
  Ewald     883.19450   874.23666   882.20105     0.76185    -0.74772     0.81764
  Hartree  1194.42142  1184.85861  1194.40771     2.01363    -0.50533     0.56263
  E(xc)    -177.98889  -178.09408  -177.93701     0.08284     0.00494    -0.00993
  Local   -2581.96590 -2563.11364 -2580.87796    -2.52333     1.47522    -1.31071
  n-local   273.61540   274.06387   273.39013    -0.60948    -0.18460    -0.07458
  augment   -27.66249   -27.61231   -27.67040     0.01554     0.02594     0.01556
  Kinetic   433.52961   432.65910   433.60138     0.15560    -0.16335    -0.03395
  Fock        0.00000     0.00000     0.00000     0.00000     0.00000     0.00000
  -------------------------------------------------------------------------------------
  Total      -0.89211    -1.03755    -0.92087    -0.10335    -0.09489    -0.03333
  in kB      -0.17866    -0.20779    -0.18442    -0.02070    -0.01900    -0.00668
  external pressure =       -0.19 kB  Pullay stress =        0.00 kB


 VOLUME and BASIS-vectors are now :
 -----------------------------------------------------------------------------
  energy-cutoff  :      400.00
  volume of cell :     8000.00
      direct lattice vectors                 reciprocal lattice vectors
    20.000000000  0.000000000  0.000000000     0.050000000  0.000000000  0.000000000
     0.000000000 20.000000000  0.000000000     0.000000000  0.050000000  0.000000000
     0.000000000  0.000000000 20.000000000     0.000000000  0.000000000  0.050000000

  length of vectors
    20.000000000 20.000000000 20.000000000     0.050000000  0.050000000  0.050000000


 FORCES acting on ions
    electron-ion (+dipol)            ewald-force                    non-local-force                 convergence-correction
 -----------------------------------------------------------------------------------------------
   0.110E+02 -.212E+02 0.884E+02   -.115E+02 0.207E+02 -.899E+02   0.521E+00 0.541E+00 0.145E+01   0.677E-03 -.246E-03 -.312E-04
   0.879E+02 -.556E+01 0.464E+02   -.895E+02 0.572E+01 -.472E+02   0.159E+01 -.159E+00 0.821E+00   0.253E-03 0.596E-03 0.286E-03
   -.380E+02 0.546E+02 0.736E+02   0.384E+02 -.552E+02 -.757E+02   -.492E+00 0.666E+00 0.207E+01   0.118E-02 0.481E-03 -.493E-03
   0.811E+02 0.110E+02 -.412E+02   -.825E+02 -.119E+02 0.413E+02   0.135E+01 0.920E+00 -.788E-01   0.408E-03 -.369E-03 0.460E-03
   -.857E+02 0.484E+01 -.454E+02   0.879E+02 -.493E+01 0.466E+02   -.221E+01 0.936E-01 -.118E+01   -.465E-04 -.108E-02 -.241E-03
   0.267E+02 0.839E+02 -.456E+02   -.280E+02 -.853E+02 0.467E+02   0.124E+01 0.146E+01 -.113E+01   0.184E-03 0.316E-04 0.134E-02
   -.300E+02 -.846E+02 0.445E+02   0.301E+02 0.853E+02 -.452E+02   -.138E+00 -.660E+00 0.649E+00   -.140E-03 -.112E-02 -.814E-03
   -.525E+02 0.767E+02 -.940E+01   0.527E+02 -.771E+02 0.944E+01   -.238E+00 0.399E+00 -.306E-01   0.116E-03 -.274E-03 0.792E-06
   -.428E+02 -.728E+02 -.412E+02   0.434E+02 0.730E+02 0.416E+02   -.564E+00 -.206E+00 -.356E+00   -.318E-03 -.957E-03 -.397E-03
   0.354E+02 -.550E+02 -.759E+02   -.360E+02 0.553E+02 0.766E+02   0.571E+00 -.336E+00 -.661E+00   -.496E-03 -.129E-02 -.125E-03
   0.208E+02 0.417E+02 0.628E+01   -.221E+02 -.440E+02 -.755E+01   0.134E+01 0.231E+01 0.126E+01   0.581E-04 0.158E-04 0.249E-03
   0.103E+01 0.224E+02 -.414E+02   -.667E+00 -.230E+02 0.443E+02   -.364E+00 0.633E+00 -.288E+01   -.355E-04 -.115E-04 0.399E-04
   -.258E+02 0.390E+02 -.427E+01   0.271E+02 -.410E+02 0.449E+01   -.134E+01 0.206E+01 -.216E+00   0.249E-04 -.606E-05 0.118E-04
   -.459E+02 -.350E+01 0.605E+01   0.486E+02 0.389E+01 -.731E+01   -.266E+01 -.384E+00 0.126E+01   0.513E-04 -.215E-03 -.160E-03
   -.206E+02 0.818E+01 -.411E+02   0.210E+02 -.882E+01 0.439E+02   -.428E+00 0.635E+00 -.287E+01   -.624E-04 -.264E-03 0.440E-04
   -.370E+02 0.509E+01 0.287E+02   0.396E+02 -.468E+01 -.300E+02   -.263E+01 -.404E+00 0.131E+01   0.131E-04 0.692E-05 -.566E-04
   0.849E+01 0.363E+02 0.288E+02   -.980E+01 -.386E+02 -.301E+02   0.131E+01 0.230E+01 0.131E+01   0.229E-03 0.887E-04 -.732E-04
   0.706E+01 -.992E+01 0.472E+02   -.749E+01 0.105E+02 -.501E+02   0.432E+00 -.584E+00 0.281E+01   0.141E-03 -.494E-04 -.133E-05
   -.213E+02 -.358E+02 -.204E+02   0.224E+02 0.377E+02 0.215E+02   -.111E+01 -.192E+01 -.108E+01   0.466E-04 -.635E-04 0.127E-04
   0.302E+01 -.338E+01 -.445E+02   -.276E+01 0.290E+01 0.470E+02   -.265E+00 0.470E+00 -.245E+01   -.848E-04 -.308E-03 -.691E-04
   0.244E+02 -.362E+02 -.106E+02   -.258E+02 0.383E+02 0.104E+02   0.139E+01 -.208E+01 0.208E+00   -.128E-03 -.198E-03 -.728E-04
   0.437E+02 0.700E+01 -.207E+02   -.464E+02 -.741E+01 0.219E+02   0.261E+01 0.411E+00 -.121E+01   0.882E-04 -.718E-04 0.939E-04
   0.326E+02 0.248E+02 0.238E+02   -.340E+02 -.270E+02 -.252E+02   0.144E+01 0.220E+01 0.132E+01   -.565E-04 -.298E-04 -.382E-04
   0.351E+02 -.293E+02 0.119E+02   -.368E+02 0.318E+02 -.122E+02   0.165E+01 -.243E+01 0.294E+00   -.971E-04 0.164E-03 -.119E-04
   0.125E+02 -.415E+02 0.113E+02   -.138E+02 0.436E+02 -.116E+02   0.137E+01 -.209E+01 0.250E+00   -.922E-04 -.182E-03 -.141E-03
   -.335E+02 -.200E+02 0.225E+02   0.357E+02 0.204E+02 -.237E+02   -.220E+01 -.416E+00 0.113E+01   -.494E-04 -.288E-03 -.148E-03
 -----------------------------------------------------------------------------------------------
   -.217E+01 -.341E+01 -.202E+01   -.426E-13 -.746E-13 -.178E-13   0.217E+01 0.342E+01 0.202E+01   0.186E-02 -.564E-02 -.331E-03
 
 
 POSITION                                       TOTAL-FORCE (eV/Angst)
 -----------------------------------------------------------------------------------
      9.49378     11.09537      7.69002        -0.012197      0.006433     -0.011609
      7.41384     10.76336      8.74132         0.004481     -0.005905      0.001029
     10.81800      9.16790      7.90976        -0.011612     -0.006635      0.007235
      7.68700     10.26965     11.02676        -0.017528      0.003802     -0.001801
     12.29611     10.49019     11.31740        -0.003010      0.000179     -0.002386
      8.99483      8.33467     11.27661         0.000614     -0.001119     -0.015101
     10.62511     12.95424      8.71480        -0.000502      0.007394      0.004451
     11.13775      8.67808     10.24187         0.007816      0.010117      0.006748
     10.97941     12.48568     11.09813         0.003635     -0.008227      0.000009
      8.78009     12.11112     12.12199         0.001749      0.008442      0.000098
      8.31542      7.16338     10.63307         0.005688      0.009875      0.001989
      9.17940      8.01773     12.72828         0.002651     -0.003386      0.017627
     11.98653      7.37420     10.37880         0.003496     -0.004874      0.000730
     13.63882     10.68427     10.68174        -0.002616     -0.002271      0.002297
     12.51076     10.16934     12.76495         0.000988     -0.000906     -0.003260
     12.14599      9.37390      7.24963         0.016336      0.003051     -0.007475
     10.15016      8.00174      7.24512         0.002946      0.008614      0.007260
      9.26991     11.39737      6.23531        -0.001450      0.001033     -0.000394
     11.68585     13.70066     11.78150        -0.007215     -0.014371     -0.007415
      8.94445     11.81729     13.64347        -0.002891     -0.004392     -0.007461
      7.91817     13.40273     11.99169         0.002907     -0.009240     -0.000658
      6.33713     10.05693     11.65132        -0.001571      0.000928     -0.001072
      6.68420      9.63820      8.06791         0.014580      0.008852      0.010149
      6.57684     11.99775      8.59359        -0.003495      0.007795      0.000223
      9.77684     14.25211      8.55962         0.003047     -0.009051     -0.000590
     11.99301     13.21014      8.01367        -0.006850     -0.006138     -0.000624
 -----------------------------------------------------------------------------------
    total drift:                                0.000819      0.002310      0.000097


--------------------------------------------------------------------------------------------------------



  FREE ENERGIE OF THE ION-ELECTRON SYSTEM (eV)
  ---------------------------------------------------
  free  energy   TOTEN  =      -102.47787839 eV

  energy  without entropy=     -102.47787839  energy(sigma->0) =     -102.47787839
 
 d Force = 0.1050325E-03[-0.792E-04, 0.289E-03]  d Energy = 0.1028840E-03 0.215E-05
 d Force = 0.1477913E+00[ 0.148E+00, 0.148E+00]  d Ewald  = 0.1477915E+00-0.206E-06


--------------------------------------------------------------------------------------------------------


    POTLOK:  cpu time    1.7397: real time    1.7431


--------------------------------------------------------------------------------------------------------


 Conjugate gradient step on ions:
 trial-energy change:   -0.000103  1 .order   -0.000105   -0.000289    0.000079
  (g-gl).g = 0.200E-03      g.g   = 0.199E-03  gl.gl    = 0.636E-03
 g(Force)  = 0.199E-03   g(Stress)= 0.000E+00 ortho     = 0.283E-05
 gamma     =   0.31439
 trial     =   1.44984
 opt step  =   1.13818  (harmonic =   1.13818) maximal distance =0.00131147
 next E    =  -102.477889   (d E  =  -0.00011)


--------------------------------------------------------------------------------------------------------


  
 reached required accuracy - stopping structural energy minimisation
 writing wavefunctions
     LOOP+:  cpu time   74.8936: real time   75.4111
    4ORBIT:  cpu time    0.0000: real time    0.0000

 total amount of memory used by VASP MPI-rank0   131440. kBytes
=======================================================================

   base      :      30000. kBytes
   nonl-proj :      17624. kBytes
   fftplans  :      26957. kBytes
   grid      :      48673. kBytes
   one-center:         40. kBytes
   wavefun   :       8146. kBytes
 
  
  
 General timing and accounting informations for this job:
 ========================================================
  
                  Total CPU time used (sec):     2450.923
                            User time (sec):     2419.397
                          System time (sec):       31.526
                         Elapsed time (sec):     2456.754
  
                   Maximum memory used (kb):      184744.
                   Average memory used (kb):           0.
  
                          Minor page faults:      5895932
                          Major page faults:           10
                 Voluntary context switches:         4589
