 vasp.5.4.4.18Apr17-6-g9f103f2a35 (build Nov 06 2017 19:16:10) complex          
  
 executed on           IFC91_ompi date 2018.07.10  15:25:20
 running on   12 total cores
 distrk:  each k-point on   12 cores,    1 groups
 distr:  one band on NCORES_PER_BAND=   6 cores,    2 groups


--------------------------------------------------------------------------------------------------------


 INCAR:
 POTCAR:    PAW_PBE Si 05Jan2001                  
 POTCAR:    PAW_PBE Ge 05Jan2001                  
 POTCAR:    PAW_PBE H 15Jun2001                   
 POTCAR:    PAW_PBE Si 05Jan2001                  
   VRHFIN =Si: s2p2                                                             
   LEXCH  = PE                                                                  
   EATOM  =   103.0669 eV,    7.5752 Ry                                         
                                                                                
   TITEL  = PAW_PBE Si 05Jan2001                                                
   LULTRA =        F    use ultrasoft PP ?                                      
   IUNSCR =        1    unscreen: 0-lin 1-nonlin 2-no                           
   RPACOR =    1.500    partial core radius                                     
   POMASS =   28.085; ZVAL   =    4.000    mass and valenz                      
   RCORE  =    1.900    outmost cutoff radius                                   
   RWIGS  =    2.480; RWIGS  =    1.312    wigner-seitz radius (au A)           
   ENMAX  =  245.345; ENMIN  =  184.009 eV                                      
   ICORE  =        2    local potential                                         
   LCOR   =        T    correct aug charges                                     
   LPAW   =        T    paw PP                                                  
   EAUG   =  322.069                                                            
   DEXC   =    0.000                                                            
   RMAX   =    1.950    core radius for proj-oper                               
   RAUG   =    1.300    factor for augmentation sphere                          
   RDEP   =    1.993    radius for radial grids                                 
   RDEPT  =    1.837    core radius for aug-charge                              
                                                                                
   Atomic configuration                                                         
    6 entries                                                                   
     n  l   j            E        occ.                                          
     1  0  0.50     -1785.8828   2.0000                                         
     2  0  0.50      -139.4969   2.0000                                         
     2  1  1.50       -95.5546   6.0000                                         
     3  0  0.50       -10.8127   2.0000                                         
     3  1  0.50        -4.0811   2.0000                                         
     3  2  1.50        -4.0817   0.0000                                         
   Description                                                                  
     l       E           TYP  RCUT    TYP  RCUT                                 
     0    -10.8127223     23  1.900                                             
     0     -7.6451159     23  1.900                                             
     1     -4.0811372     23  1.900                                             
     1      2.4879257     23  1.900                                             
     2     -4.0817478      7  1.900                                             
  local pseudopotential read in
  partial core-charges read in
  partial kinetic energy density read in
  atomic valenz-charges read in
  non local Contribution for L=           0  read in
    real space projection operators read in
  non local Contribution for L=           0  read in
    real space projection operators read in
  non local Contribution for L=           1  read in
    real space projection operators read in
  non local Contribution for L=           1  read in
    real space projection operators read in
    PAW grid and wavefunctions read in
 
   number of l-projection  operators is LMAX  =           4
   number of lm-projection operators is LMMAX =           8
 
 POTCAR:    PAW_PBE Ge 05Jan2001                  
   VRHFIN =Ge: s2p2                                                             
   LEXCH  = PE                                                                  
   EATOM  =   104.9960 eV,    7.7170 Ry                                         
                                                                                
   TITEL  = PAW_PBE Ge 05Jan2001                                                
   LULTRA =        F    use ultrasoft PP ?                                      
   IUNSCR =        1    unscreen: 0-lin 1-nonlin 2-no                           
   RPACOR =    2.170    partial core radius                                     
   POMASS =   72.610; ZVAL   =    4.000    mass and valenz                      
   RCORE  =    2.300    outmost cutoff radius                                   
   RWIGS  =    2.300; RWIGS  =    1.217    wigner-seitz radius (au A)           
   ENMAX  =  173.807; ENMIN  =  130.355 eV                                      
   ICORE  =        3    local potential                                         
   LCOR   =        T    correct aug charges                                     
   LPAW   =        T    paw PP                                                  
   EAUG   =  385.843                                                            
   DEXC   =    0.000                                                            
   RMAX   =    2.342    core radius for proj-oper                               
   RAUG   =    1.300    factor for augmentation sphere                          
   RDEP   =    2.318    radius for radial grids                                 
   RDEPT  =    2.103    core radius for aug-charge                              
                                                                                
   Atomic configuration                                                         
   10 entries                                                                   
     n  l   j            E        occ.                                          
     1  0  0.50    -10959.8463   2.0000                                         
     2  0  0.50     -1371.6056   2.0000                                         
     2  1  1.50     -1198.4791   6.0000                                         
     3  0  0.50      -168.4733   2.0000                                         
     3  1  1.50      -115.6019   6.0000                                         
     3  2  2.50       -29.3106  10.0000                                         
     4  0  0.50       -11.7309   2.0000                                         
     4  1  0.50        -3.8952   2.0000                                         
     4  2  1.50        -4.0817   0.0000                                         
     4  3  2.50        -4.0817   0.0000                                         
   Description                                                                  
     l       E           TYP  RCUT    TYP  RCUT                                 
     0    -11.7309493     23  2.300                                             
     0     -7.4578696     23  2.300                                             
     1     -3.8952261     23  2.300                                             
     1      6.1178114     23  2.300                                             
     2     -4.0817478     23  2.300                                             
     3     -1.3605826      7  2.300                                             
  local pseudopotential read in
  partial core-charges read in
  partial kinetic energy density read in
  atomic valenz-charges read in
  non local Contribution for L=           0  read in
    real space projection operators read in
  non local Contribution for L=           0  read in
    real space projection operators read in
  non local Contribution for L=           1  read in
    real space projection operators read in
  non local Contribution for L=           1  read in
    real space projection operators read in
  non local Contribution for L=           2  read in
    real space projection operators read in
    PAW grid and wavefunctions read in
 
   number of l-projection  operators is LMAX  =           5
   number of lm-projection operators is LMMAX =          13
 
 POTCAR:    PAW_PBE H 15Jun2001                   
   VRHFIN =H: ultrasoft test                                                    
   LEXCH  = PE                                                                  
   EATOM  =    12.4884 eV,    0.9179 Ry                                         
                                                                                
   TITEL  = PAW_PBE H 15Jun2001                                                 
   LULTRA =        F    use ultrasoft PP ?                                      
   IUNSCR =        0    unscreen: 0-lin 1-nonlin 2-no                           
   RPACOR =    0.000    partial core radius                                     
   POMASS =    1.000; ZVAL   =    1.000    mass and valenz                      
   RCORE  =    1.100    outmost cutoff radius                                   
   RWIGS  =    0.700; RWIGS  =    0.370    wigner-seitz radius (au A)           
   ENMAX  =  250.000; ENMIN  =  200.000 eV                                      
   RCLOC  =    0.701    cutoff for local pot                                    
   LCOR   =        T    correct aug charges                                     
   LPAW   =        T    paw PP                                                  
   EAUG   =  400.000                                                            
   RMAX   =    1.123    core radius for proj-oper                               
   RAUG   =    1.200    factor for augmentation sphere                          
   RDEP   =    1.112    radius for radial grids                                 
   RDEPT  =    0.926    core radius for aug-charge                              
                                                                                
   Atomic configuration                                                         
    2 entries                                                                   
     n  l   j            E        occ.                                          
     1  0  0.50        -6.4927   1.0000                                         
     2  1  0.50        -3.4015   0.0000                                         
   Description                                                                  
     l       E           TYP  RCUT    TYP  RCUT                                 
     0     -6.4927494     23  1.100                                             
     0      6.8029130     23  1.100                                             
     1     -4.0817478     23  1.100                                             
  local pseudopotential read in
  atomic valenz-charges read in
  non local Contribution for L=           0  read in
    real space projection operators read in
  non local Contribution for L=           0  read in
    real space projection operators read in
  non local Contribution for L=           1  read in
    real space projection operators read in
    PAW grid and wavefunctions read in
 
   number of l-projection  operators is LMAX  =           3
   number of lm-projection operators is LMMAX =           5
 

 ----------------------------------------------------------------------------- 
|                                                                             |
|  ADVICE TO THIS USER RUNNING 'VASP/VAMP'   (HEAR YOUR MASTER'S VOICE ...):  |
|                                                                             |
|      You have a (more or less) 'large supercell' and for larger cells       |
|      it might be more efficient to use real space projection opertators     |
|      So try LREAL= Auto  in the INCAR   file.                               |
|      Mind:          For very  accurate calculation you might also keep the  |
|      reciprocal projection scheme          (i.e. LREAL=.FALSE.)             |
|                                                                             |
 ----------------------------------------------------------------------------- 

  PAW_PBE Si 05Jan2001                  :
 energy of atom  1       EATOM= -103.0669
 kinetic energy error for atom=    0.0012 (will be added to EATOM!!)
  PAW_PBE Ge 05Jan2001                  :
 energy of atom  2       EATOM= -104.9960
 kinetic energy error for atom=    0.0003 (will be added to EATOM!!)
  PAW_PBE H 15Jun2001                   :
 energy of atom  3       EATOM=  -12.4884
 kinetic energy error for atom=    0.0098 (will be added to EATOM!!)
 
 
 POSCAR: SiGeH16                                 
  positions in direct lattice
  No initial velocities read in
 exchange correlation table for  LEXCH =        8
   RHO(1)=    0.500       N(1)  =     2000
   RHO(2)=  100.500       N(2)  =     4000
 


--------------------------------------------------------------------------------------------------------


 ion  position               nearest neighbor table
   1  0.475  0.556  0.385-  18 1.55   7 2.39   2 2.39   3 2.39
   2  0.369  0.539  0.436-  23 1.55  24 1.55   4 2.39   1 2.39
   3  0.542  0.457  0.396-  17 1.55  16 1.55   5 2.39   1 2.39
   4  0.385  0.515  0.552-  22 1.55  10 2.39   6 2.39   2 2.39
   5  0.557  0.433  0.512-  13 1.55   3 2.39   9 2.39   6 2.39
   6  0.451  0.416  0.564-  12 1.55  11 1.55   4 2.39   5 2.39
   7  0.531  0.648  0.437-  25 1.55  26 1.55   8 2.39   1 2.39
   8  0.547  0.624  0.554-  19 1.55   7 2.39   9 2.39  10 2.39
   9  0.613  0.525  0.565-  15 1.55  14 1.55   8 2.39   5 2.39
  10  0.440  0.606  0.605-  20 1.55  21 1.55   4 2.39   8 2.39
  11  0.415  0.357  0.529-   6 1.55
  12  0.461  0.400  0.639-   6 1.55
  13  0.600  0.369  0.520-   5 1.55
  14  0.682  0.536  0.531-   9 1.55
  15  0.623  0.509  0.640-   9 1.55
  16  0.611  0.469  0.363-   3 1.55
  17  0.506  0.398  0.362-   3 1.55
  18  0.465  0.572  0.309-   1 1.55
  19  0.583  0.683  0.588-   8 1.55
  20  0.451  0.590  0.680-  10 1.55
  21  0.397  0.670  0.598-  10 1.55
  22  0.316  0.504  0.586-   4 1.55
  23  0.333  0.479  0.402-   2 1.55
  24  0.326  0.603  0.429-   2 1.55
  25  0.488  0.712  0.430-   7 1.55
  26  0.600  0.659  0.404-   7 1.55
 
  LATTYP: Found a simple cubic cell.
 ALAT       =    20.0000000000
  
  Lattice vectors:
  
 A1 = (  20.0000000000,   0.0000000000,   0.0000000000)
 A2 = (   0.0000000000,  20.0000000000,   0.0000000000)
 A3 = (   0.0000000000,   0.0000000000,  20.0000000000)


Analysis of symmetry for initial positions (statically):
=====================================================================
 Subroutine PRICEL returns:
 Original cell was already a primitive cell.
 

 Routine SETGRP: Setting up the symmetry group for a 
 simple cubic supercell.


 Subroutine GETGRP returns: Found  1 space group operations
 (whereof  1 operations were pure point group operations)
 out of a pool of 48 trial point group operations.


The static configuration has the point symmetry C_1 .


Analysis of symmetry for dynamics (positions and initial velocities):
=====================================================================
 Subroutine PRICEL returns:
 Original cell was already a primitive cell.
 

 Routine SETGRP: Setting up the symmetry group for a 
 simple cubic supercell.


 Subroutine GETGRP returns: Found  1 space group operations
 (whereof  1 operations were pure point group operations)
 out of a pool of 48 trial point group operations.


The dynamic configuration has the point symmetry C_1 .


 Subroutine INISYM returns: Found  1 space group operations
 (whereof  1 operations are pure point group operations),
 and found     1 'primitive' translations

 
 
 KPOINTS: Automatic mesh                          

Automatic generation of k-mesh.
Space group operators:
 irot       det(A)        alpha          n_x          n_y          n_z        tau_x        tau_y        tau_z
    1     1.000000     0.000000     1.000000     0.000000     0.000000     0.000000     0.000000     0.000000
 
 Subroutine IBZKPT returns following result:
 ===========================================
 
 Found      1 irreducible k-points:
 
 Following reciprocal coordinates:
            Coordinates               Weight
  0.000000  0.000000  0.000000      1.000000
 
 Following cartesian coordinates:
            Coordinates               Weight
  0.000000  0.000000  0.000000      1.000000
 


--------------------------------------------------------------------------------------------------------




 Dimension of arrays:
   k-points           NKPTS =      1   k-points in BZ     NKDIM =      1   number of bands    NBANDS=     42
   number of dos      NEDOS =    301   number of ions     NIONS =     26
   non local maximal  LDIM  =      5   non local SUM 2l+1 LMDIM =     13
   total plane-waves  NPLWV = 941192
   max r-space proj   IRMAX =      1   max aug-charges    IRDMAX=   6593
   dimension x,y,z NGX =    98 NGY =   98 NGZ =   98
   dimension x,y,z NGXF=   196 NGYF=  196 NGZF=  196
   support grid    NGXF=   196 NGYF=  196 NGZF=  196
   ions per type =               6   4  16
   NGX,Y,Z   is equivalent  to a cutoff of   8.15,  8.15,  8.15 a.u.
   NGXF,Y,Z  is equivalent  to a cutoff of  16.29, 16.29, 16.29 a.u.

 SYSTEM =  SiGe                                    
 POSCAR =  SiGeH16                                 

 Startparameter for this run:
   NWRITE =      2    write-flag & timer
   PREC   = normal    normal or accurate (medium, high low for compatibility)
   ISTART =      0    job   : 0-new  1-cont  2-samecut
   ICHARG =      2    charge: 1-file 2-atom 10-const
   ISPIN  =      1    spin polarized calculation?
   LNONCOLLINEAR =      F non collinear calculations
   LSORBIT =      F    spin-orbit coupling
   INIWAV =      1    electr: 0-lowe 1-rand  2-diag
   LASPH  =      F    aspherical Exc in radial PAW
   METAGGA=      F    non-selfconsistent MetaGGA calc.

 Electronic Relaxation 1
   ENCUT  =  400.0 eV  29.40 Ry    5.42 a.u.  32.61 32.61 32.61*2*pi/ulx,y,z
   ENINI  =  400.0     initial cutoff
   ENAUG  =  400.0 eV  augmentation charge cutoff
   NELM   =     60;   NELMIN=  2; NELMDL= -5     # of ELM steps 
   EDIFF  = 0.1E-05   stopping-criterion for ELM
   LREAL  =      F    real-space projection
   NLSPLINE    = F    spline interpolate recip. space projectors
   LCOMPAT=      F    compatible to vasp.4.4
   GGA_COMPAT  = T    GGA compatible to vasp.4.4-vasp.4.6
   LMAXPAW     = -100 max onsite density
   LMAXMIX     =    2 max onsite mixed and CHGCAR
   VOSKOWN=      0    Vosko Wilk Nusair interpolation
   ROPT   =    0.00000   0.00000   0.00000
 Ionic relaxation
   EDIFFG = -.2E-01   stopping-criterion for IOM
   NSW    =    200    number of steps for IOM
   NBLOCK =      1;   KBLOCK =    200    inner block; outer block 
   IBRION =      2    ionic relax: 0-MD 1-quasi-New 2-CG
   NFREE  =      1    steps in history (QN), initial steepest desc. (CG)
   ISIF   =      2    stress and relaxation
   IWAVPR =     11    prediction:  0-non 1-charg 2-wave 3-comb
   ISYM   =      2    0-nonsym 1-usesym 2-fastsym
   LCORR  =      T    Harris-Foulkes like correction to forces

   POTIM  = 0.5000    time-step for ionic-motion
   TEIN   =    0.0    initial temperature
   TEBEG  =    0.0;   TEEND  =   0.0 temperature during run
   SMASS  =  -3.00    Nose mass-parameter (am)
   estimated Nose-frequenzy (Omega)   =  0.10E-29 period in steps =****** mass=  -0.914E-26a.u.
   SCALEE = 1.0000    scale energy and forces
   NPACO  =    256;   APACO  = 16.0  distance and # of slots for P.C.
   PSTRESS=    0.0 pullay stress

  Mass of Ions in am
   POMASS =  28.09 72.61  1.00
  Ionic Valenz
   ZVAL   =   4.00  4.00  1.00
  Atomic Wigner-Seitz radii
   RWIGS  =  -1.00 -1.00 -1.00
  virtual crystal weights 
   VCA    =   1.00  1.00  1.00
   NELECT =      56.0000    total number of electrons
   NUPDOWN=      -1.0000    fix difference up-down

 DOS related values:
   EMIN   =  10.00;   EMAX   =-10.00  energy-range for DOS
   EFERMI =   0.00
   ISMEAR =     0;   SIGMA  =   0.20  broadening in eV -4-tet -1-fermi 0-gaus

 Electronic relaxation 2 (details)
   IALGO  =     38    algorithm
   LDIAG  =      T    sub-space diagonalisation (order eigenvalues)
   LSUBROT=      F    optimize rotation matrix (better conditioning)
   TURBO    =      0    0=normal 1=particle mesh
   IRESTART =      0    0=no restart 2=restart with 2 vectors
   NREBOOT  =      0    no. of reboots
   NMIN     =      0    reboot dimension
   EREF     =   0.00    reference energy to select bands
   IMIX   =      4    mixing-type and parameters
     AMIX     =   0.40;   BMIX     =  1.00
     AMIX_MAG =   1.60;   BMIX_MAG =  1.00
     AMIN     =   0.10
     WC   =   100.;   INIMIX=   1;  MIXPRE=   1;  MAXMIX= -45

 Intra band minimization:
   WEIMIN = 0.0010     energy-eigenvalue tresh-hold
   EBREAK =  0.60E-08  absolut break condition
   DEPER  =   0.30     relativ break condition  

   TIME   =   0.40     timestep for ELM

  volume/ion in A,a.u.               =     307.69      2076.41
  Fermi-wavevector in a.u.,A,eV,Ry     =   0.313166  0.591797  1.334361  0.098073
  Thomas-Fermi vector in A             =   1.193276
 
 Write flags
   LWAVE        =      T    write WAVECAR
   LDOWNSAMPLE  =      F    k-point downsampling of WAVECAR
   LCHARG       =      T    write CHGCAR
   LVTOT        =      F    write LOCPOT, total local potential
   LVHAR        =      F    write LOCPOT, Hartree potential only
   LELF         =      F    write electronic localiz. function (ELF)
   LORBIT       =      0    0 simple, 1 ext, 2 COOP (PROOUT), +10 PAW based schemes


 Dipole corrections
   LMONO  =      F    monopole corrections only (constant potential shift)
   LDIPOL =      F    correct potential (dipole corrections)
   IDIPOL =      0    1-x, 2-y, 3-z, 4-all directions 
   EPSILON=  1.0000000 bulk dielectric constant

 Exchange correlation treatment:
   GGA     =    --    GGA type
   LEXCH   =     8    internal setting for exchange type
   VOSKOWN=      0    Vosko Wilk Nusair interpolation
   LHFCALC =     F    Hartree Fock is set to
   LHFONE  =     F    Hartree Fock one center treatment
   AEXX    =    0.0000 exact exchange contribution

 Linear response parameters
   LEPSILON=     F    determine dielectric tensor
   LRPA    =     F    only Hartree local field effects (RPA)
   LNABLA  =     F    use nabla operator in PAW spheres
   LVEL    =     F    velocity operator in full k-point grid
   LINTERFAST=   F  fast interpolation
   KINTER  =     0    interpolate to denser k-point grid
   CSHIFT  =0.1000    complex shift for real part using Kramers Kronig
   OMEGAMAX=  -1.0    maximum frequency
   DEG_THRESHOLD= 0.2000000E-02 threshold for treating states as degnerate
   RTIME   =   -0.100 relaxation time in fs
  (WPLASMAI=    0.000 imaginary part of plasma frequency in eV, 0.658/RTIME)
   DFIELD  = 0.0000000 0.0000000 0.0000000 field for delta impulse in time
 
 Orbital magnetization related:
   ORBITALMAG=     F  switch on orbital magnetization
   LCHIMAG   =     F  perturbation theory with respect to B field
   DQ        =  0.001000  dq finite difference perturbation B field
   LLRAUG    =     F  two centre corrections for induced B field



--------------------------------------------------------------------------------------------------------


 conjugate gradient relaxation of ions
 charge density and potential will be updated during run
 non-spin polarized calculation
 Variant of blocked Davidson
 Davidson routine will perform the subspace rotation
 perform sub-space diagonalisation
    after iterative eigenvector-optimisation
 modified Broyden-mixing scheme, WC =      100.0
 initial mixing is a Kerker type mixing with AMIX =  0.4000 and BMIX =      1.0000
 Hartree-type preconditioning will be used
 using additional bands           14
 reciprocal scheme for non local part
 use partial core corrections
 calculate Harris-corrections to forces 
   (improved forces if not selfconsistent)
 use gradient corrections 
 use of overlap-Matrix (Vanderbilt PP)
 Gauss-broadening in eV      SIGMA  =   0.20


--------------------------------------------------------------------------------------------------------


  energy-cutoff  :      400.00
  volume of cell :     8000.00
      direct lattice vectors                 reciprocal lattice vectors
    20.000000000  0.000000000  0.000000000     0.050000000  0.000000000  0.000000000
     0.000000000 20.000000000  0.000000000     0.000000000  0.050000000  0.000000000
     0.000000000  0.000000000 20.000000000     0.000000000  0.000000000  0.050000000

  length of vectors
    20.000000000 20.000000000 20.000000000     0.050000000  0.050000000  0.050000000


 
 k-points in units of 2pi/SCALE and weight: Automatic mesh                          
   0.00000000  0.00000000  0.00000000       1.000
 
 k-points in reciprocal lattice and weights: Automatic mesh                          
   0.00000000  0.00000000  0.00000000       1.000
 
 position of ions in fractional coordinates (direct lattice) 
   0.47547100  0.55626000  0.38465300
   0.36907800  0.53906000  0.43641200
   0.54179100  0.45744600  0.39613600
   0.38461900  0.51474100  0.55243500
   0.55736800  0.43311000  0.51215000
   0.45095700  0.41593600  0.56388300
   0.53111600  0.64794100  0.43749600
   0.54669200  0.62364400  0.55351800
   0.61299700  0.52481700  0.56496600
   0.44028400  0.60643000  0.60524300
   0.41490100  0.35665000  0.52940300
   0.46117000  0.40042600  0.63910800
   0.60034800  0.36907000  0.51957800
   0.68182700  0.53600700  0.53118700
   0.62280400  0.50903400  0.64018900
   0.61080000  0.46880600  0.36278200
   0.50550800  0.39805500  0.36207700
   0.46538400  0.57201900  0.30946400
   0.58275500  0.68306700  0.58775000
   0.45052500  0.59044300  0.68036400
   0.39732000  0.67044900  0.59753500
   0.31566200  0.50359800  0.58596500
   0.33322800  0.47946500  0.40225200
   0.32629100  0.60324700  0.42912600
   0.48792300  0.71185500  0.43020800
   0.60015100  0.65882400  0.40403700
 
 position of ions in cartesian coordinates  (Angst):
   9.50942000 11.12520000  7.69306000
   7.38156000 10.78120000  8.72824000
  10.83582000  9.14892000  7.92272000
   7.69238000 10.29482000 11.04870000
  11.14736000  8.66220000 10.24300000
   9.01914000  8.31872000 11.27766000
  10.62232000 12.95882000  8.74992000
  10.93384000 12.47288000 11.07036000
  12.25994000 10.49634000 11.29932000
   8.80568000 12.12860000 12.10486000
   8.29802000  7.13300000 10.58806000
   9.22340000  8.00852000 12.78216000
  12.00696000  7.38140000 10.39156000
  13.63654000 10.72014000 10.62374000
  12.45608000 10.18068000 12.80378000
  12.21600000  9.37612000  7.25564000
  10.11016000  7.96110000  7.24154000
   9.30768000 11.44038000  6.18928000
  11.65510000 13.66134000 11.75500000
   9.01050000 11.80886000 13.60728000
   7.94640000 13.40898000 11.95070000
   6.31324000 10.07196000 11.71930000
   6.66456000  9.58930000  8.04504000
   6.52582000 12.06494000  8.58252000
   9.75846000 14.23710000  8.60416000
  12.00302000 13.17648000  8.08074000
 


--------------------------------------------------------------------------------------------------------


 k-point  1 :   0.0000 0.0000 0.0000  plane waves:  145165

 maximum and minimum number of plane-waves per node :     24209    24180

 maximum number of plane-waves:    145165
 maximum index in each direction: 
   IXMAX=   32   IYMAX=   32   IZMAX=   32
   IXMIN=  -32   IYMIN=  -32   IZMIN=  -32


 parallel 3D FFT for wavefunctions:
    minimum data exchange during FFTs selected (reduces bandwidth)
 parallel 3D FFT for charge:
    minimum data exchange during FFTs selected (reduces bandwidth)


 total amount of memory used by VASP MPI-rank0   131440. kBytes
=======================================================================

   base      :      30000. kBytes
   nonl-proj :      17624. kBytes
   fftplans  :      26957. kBytes
   grid      :      48673. kBytes
   one-center:         40. kBytes
   wavefun   :       8146. kBytes
 
     INWAV:  cpu time    0.0000: real time    0.0000
 Broyden mixing: mesh for mixing (old mesh)
   NGX = 65   NGY = 65   NGZ = 65
  (NGX  =196   NGY  =196   NGZ  =196)
  gives a total of 274625 points

 initial charge density was supplied:
 charge density of overlapping atoms calculated
 number of electron      56.0000000 magnetization 
 keeping initial charge density in first step


--------------------------------------------------------------------------------------------------------


 Maximum index for augmentation-charges          565 (set IRDMAX)


--------------------------------------------------------------------------------------------------------


 First call to EWALD:  gamma=   0.089
 Maximum number of real-space cells 3x 3x 3
 Maximum number of reciprocal cells 3x 3x 3

    FEWALD:  cpu time    0.0030: real time    0.0026


--------------------------------------- Iteration      1(   1)  ---------------------------------------


    POTLOK:  cpu time    1.7667: real time    1.7700
    SETDIJ:  cpu time    0.0080: real time    0.0073
     EDDAV:  cpu time   10.8204: real time   10.8194
       DOS:  cpu time    0.0000: real time    0.0003
    --------------------------------------------
      LOOP:  cpu time   12.5951: real time   12.5970

 eigenvalue-minimisations  :   116
 total energy-change (2. order) : 0.2014672E+03  (-0.1048498E+04)
 number of electron      56.0000000 magnetization 
 augmentation part       56.0000000 magnetization 

 Free energy of the ion-electron system (eV)
  ---------------------------------------------------
  alpha Z        PSCENC =         1.96423985
  Ewald energy   TEWEN  =      2629.98113996
  -Hartree energ DENC   =     -3442.44086971
  -exchange      EXHF   =         0.00000000
  -V(xc)+E(xc)   XCENC  =       -53.19096927
  PAW double counting   =       915.46801746     -752.10009045
  entropy T*S    EENTRO =        -0.43049664
  eigenvalues    EBANDS =      -335.81904457
  atomic energy  EATOM  =      1238.03527989
  Solvation  Ediel_sol  =         0.00000000
  ---------------------------------------------------
  free energy    TOTEN  =       201.46720652 eV

  energy without entropy =      201.89770316  energy(sigma->0) =      201.68245484


--------------------------------------------------------------------------------------------------------




--------------------------------------- Iteration      1(   2)  ---------------------------------------


     EDDAV:  cpu time   12.8680: real time   12.9065
       DOS:  cpu time    0.0000: real time    0.0002
    --------------------------------------------
      LOOP:  cpu time   12.8680: real time   12.9067

 eigenvalue-minimisations  :   144
 total energy-change (2. order) :-0.2306660E+03  (-0.2160542E+03)
 number of electron      56.0000000 magnetization 
 augmentation part       56.0000000 magnetization 

 Free energy of the ion-electron system (eV)
  ---------------------------------------------------
  alpha Z        PSCENC =         1.96423985
  Ewald energy   TEWEN  =      2629.98113996
  -Hartree energ DENC   =     -3442.44086971
  -exchange      EXHF   =         0.00000000
  -V(xc)+E(xc)   XCENC  =       -53.19096927
  PAW double counting   =       915.46801746     -752.10009045
  entropy T*S    EENTRO =        -0.00000000
  eigenvalues    EBANDS =      -566.91552372
  atomic energy  EATOM  =      1238.03527989
  Solvation  Ediel_sol  =         0.00000000
  ---------------------------------------------------
  free energy    TOTEN  =       -29.19877600 eV

  energy without entropy =      -29.19877600  energy(sigma->0) =      -29.19877600


--------------------------------------------------------------------------------------------------------




--------------------------------------- Iteration      1(   3)  ---------------------------------------


     EDDAV:  cpu time   10.1745: real time   10.1711
       DOS:  cpu time    0.0010: real time    0.0003
    --------------------------------------------
      LOOP:  cpu time   10.1755: real time   10.1714

 eigenvalue-minimisations  :   104
 total energy-change (2. order) :-0.7358285E+02  (-0.7341170E+02)
 number of electron      56.0000000 magnetization 
 augmentation part       56.0000000 magnetization 

 Free energy of the ion-electron system (eV)
  ---------------------------------------------------
  alpha Z        PSCENC =         1.96423985
  Ewald energy   TEWEN  =      2629.98113996
  -Hartree energ DENC   =     -3442.44086971
  -exchange      EXHF   =         0.00000000
  -V(xc)+E(xc)   XCENC  =       -53.19096927
  PAW double counting   =       915.46801746     -752.10009045
  entropy T*S    EENTRO =        -0.00000000
  eigenvalues    EBANDS =      -640.49837486
  atomic energy  EATOM  =      1238.03527989
  Solvation  Ediel_sol  =         0.00000000
  ---------------------------------------------------
  free energy    TOTEN  =      -102.78162714 eV

  energy without entropy =     -102.78162714  energy(sigma->0) =     -102.78162714


--------------------------------------------------------------------------------------------------------




--------------------------------------- Iteration      1(   4)  ---------------------------------------


     EDDAV:  cpu time   10.4724: real time   10.5084
       DOS:  cpu time    0.0000: real time    0.0002
    --------------------------------------------
      LOOP:  cpu time   10.4724: real time   10.5087

 eigenvalue-minimisations  :   112
 total energy-change (2. order) :-0.4193201E+01  (-0.4178497E+01)
 number of electron      56.0000000 magnetization 
 augmentation part       56.0000000 magnetization 

 Free energy of the ion-electron system (eV)
  ---------------------------------------------------
  alpha Z        PSCENC =         1.96423985
  Ewald energy   TEWEN  =      2629.98113996
  -Hartree energ DENC   =     -3442.44086971
  -exchange      EXHF   =         0.00000000
  -V(xc)+E(xc)   XCENC  =       -53.19096927
  PAW double counting   =       915.46801746     -752.10009045
  entropy T*S    EENTRO =        -0.00000000
  eigenvalues    EBANDS =      -644.69157619
  atomic energy  EATOM  =      1238.03527989
  Solvation  Ediel_sol  =         0.00000000
  ---------------------------------------------------
  free energy    TOTEN  =      -106.97482847 eV

  energy without entropy =     -106.97482847  energy(sigma->0) =     -106.97482847


--------------------------------------------------------------------------------------------------------




--------------------------------------- Iteration      1(   5)  ---------------------------------------


     EDDAV:  cpu time   12.3471: real time   12.3506
       DOS:  cpu time    0.0000: real time    0.0003
    CHARGE:  cpu time    0.4839: real time    0.4843
    MIXING:  cpu time    0.0430: real time    0.0427
    --------------------------------------------
      LOOP:  cpu time   12.8740: real time   12.8779

 eigenvalue-minimisations  :   136
 total energy-change (2. order) :-0.7635247E-01  (-0.7630364E-01)
 number of electron      56.0000012 magnetization 
 augmentation part       -3.5411820 magnetization 

 Broyden mixing:
  rms(total) = 0.15040E+01    rms(broyden)= 0.15039E+01
  rms(prec ) = 0.16001E+01
  weight for this iteration     100.00

 Free energy of the ion-electron system (eV)
  ---------------------------------------------------
  alpha Z        PSCENC =         1.96423985
  Ewald energy   TEWEN  =      2629.98113996
  -Hartree energ DENC   =     -3442.44086971
  -exchange      EXHF   =         0.00000000
  -V(xc)+E(xc)   XCENC  =       -53.19096927
  PAW double counting   =       915.46801746     -752.10009045
  entropy T*S    EENTRO =        -0.00000000
  eigenvalues    EBANDS =      -644.76792867
  atomic energy  EATOM  =      1238.03527989
  Solvation  Ediel_sol  =         0.00000000
  ---------------------------------------------------
  free energy    TOTEN  =      -107.05118094 eV

  energy without entropy =     -107.05118094  energy(sigma->0) =     -107.05118094


--------------------------------------------------------------------------------------------------------




--------------------------------------- Iteration      1(   6)  ---------------------------------------


    POTLOK:  cpu time    1.7287: real time    1.7442
    SETDIJ:  cpu time    0.0080: real time    0.0075
     EDDAV:  cpu time   10.0245: real time   10.0218
       DOS:  cpu time    0.0000: real time    0.0003
    CHARGE:  cpu time    0.4939: real time    0.4941
    MIXING:  cpu time    0.0470: real time    0.0469
    --------------------------------------------
      LOOP:  cpu time   12.3021: real time   12.3149

 eigenvalue-minimisations  :   104
 total energy-change (2. order) : 0.3218623E+01  (-0.1567640E+00)
 number of electron      56.0000011 magnetization 
 augmentation part       -3.5422796 magnetization 

 Broyden mixing:
  rms(total) = 0.87294E+00    rms(broyden)= 0.87293E+00
  rms(prec ) = 0.93145E+00
  weight for this iteration     100.00

 eigenvalues of (default mixing * dielectric matrix)
  average eigenvalue GAMMA=   2.3117
  2.3117

 Free energy of the ion-electron system (eV)
  ---------------------------------------------------
  alpha Z        PSCENC =         1.96423985
  Ewald energy   TEWEN  =      2629.98113996
  -Hartree energ DENC   =     -3473.85100619
  -exchange      EXHF   =         0.00000000
  -V(xc)+E(xc)   XCENC  =       -49.55912009
  PAW double counting   =      1845.14897954    -1682.55549964
  entropy T*S    EENTRO =        -0.00000000
  eigenvalues    EBANDS =      -612.99657091
  atomic energy  EATOM  =      1238.03527989
  Solvation  Ediel_sol  =         0.00000000
  ---------------------------------------------------
  free energy    TOTEN  =      -103.83255760 eV

  energy without entropy =     -103.83255760  energy(sigma->0) =     -103.83255760


--------------------------------------------------------------------------------------------------------




--------------------------------------- Iteration      1(   7)  ---------------------------------------


    POTLOK:  cpu time    1.7007: real time    1.7003
    SETDIJ:  cpu time    0.0080: real time    0.0075
     EDDAV:  cpu time    9.9725: real time    9.9707
       DOS:  cpu time    0.0010: real time    0.0003
    CHARGE:  cpu time    0.4859: real time    0.4860
    MIXING:  cpu time    0.0490: real time    0.0492
    --------------------------------------------
      LOOP:  cpu time   12.2171: real time   12.2141

 eigenvalue-minimisations  :   104
 total energy-change (2. order) : 0.1692438E+01  (-0.4088871E+00)
 number of electron      56.0000009 magnetization 
 augmentation part       -3.5409069 magnetization 

 Broyden mixing:
  rms(total) = 0.12194E+00    rms(broyden)= 0.12179E+00
  rms(prec ) = 0.15300E+00
  weight for this iteration     100.00

 eigenvalues of (default mixing * dielectric matrix)
  average eigenvalue GAMMA=   1.8296
  1.6508  2.0084

 Free energy of the ion-electron system (eV)
  ---------------------------------------------------
  alpha Z        PSCENC =         1.96423985
  Ewald energy   TEWEN  =      2629.98113996
  -Hartree energ DENC   =     -3529.93696914
  -exchange      EXHF   =         0.00000000
  -V(xc)+E(xc)   XCENC  =       -43.78312982
  PAW double counting   =      3908.07335247    -3746.52218937
  entropy T*S    EENTRO =        -0.00000000
  eigenvalues    EBANDS =      -559.95184339
  atomic energy  EATOM  =      1238.03527989
  Solvation  Ediel_sol  =         0.00000000
  ---------------------------------------------------
  free energy    TOTEN  =      -102.14011957 eV

  energy without entropy =     -102.14011957  energy(sigma->0) =     -102.14011957


--------------------------------------------------------------------------------------------------------




--------------------------------------- Iteration      1(   8)  ---------------------------------------


    POTLOK:  cpu time    1.7077: real time    1.7131
    SETDIJ:  cpu time    0.0070: real time    0.0074
     EDDAV:  cpu time   10.0005: real time   10.0010
       DOS:  cpu time    0.0010: real time    0.0003
    CHARGE:  cpu time    0.4829: real time    0.4850
    MIXING:  cpu time    0.0500: real time    0.0501
    --------------------------------------------
      LOOP:  cpu time   12.2491: real time   12.2569

 eigenvalue-minimisations  :   104
 total energy-change (2. order) : 0.5093575E-01  (-0.2617994E-01)
 number of electron      56.0000009 magnetization 
 augmentation part       -3.5385212 magnetization 

 Broyden mixing:
  rms(total) = 0.61689E-01    rms(broyden)= 0.61674E-01
  rms(prec ) = 0.81229E-01
  weight for this iteration     100.00

 eigenvalues of (default mixing * dielectric matrix)
  average eigenvalue GAMMA=   1.9826
  2.6393  1.6543  1.6543

 Free energy of the ion-electron system (eV)
  ---------------------------------------------------
  alpha Z        PSCENC =         1.96423985
  Ewald energy   TEWEN  =      2629.98113996
  -Hartree energ DENC   =     -3537.60660276
  -exchange      EXHF   =         0.00000000
  -V(xc)+E(xc)   XCENC  =       -43.82674727
  PAW double counting   =      3919.33430215    -3757.69463749
  entropy T*S    EENTRO =        -0.00000000
  eigenvalues    EBANDS =      -552.27615815
  atomic energy  EATOM  =      1238.03527989
  Solvation  Ediel_sol  =         0.00000000
  ---------------------------------------------------
  free energy    TOTEN  =      -102.08918382 eV

  energy without entropy =     -102.08918382  energy(sigma->0) =     -102.08918382


--------------------------------------------------------------------------------------------------------




--------------------------------------- Iteration      1(   9)  ---------------------------------------


    POTLOK:  cpu time    1.7137: real time    1.7192
    SETDIJ:  cpu time    0.0080: real time    0.0076
     EDDAV:  cpu time   11.1553: real time   11.1537
       DOS:  cpu time    0.0010: real time    0.0004
    CHARGE:  cpu time    0.4839: real time    0.4831
    MIXING:  cpu time    0.0520: real time    0.0527
    --------------------------------------------
      LOOP:  cpu time   13.4140: real time   13.4165

 eigenvalue-minimisations  :   120
 total energy-change (2. order) : 0.3599228E-01  (-0.7862448E-02)
 number of electron      56.0000009 magnetization 
 augmentation part       -3.5260380 magnetization 

 Broyden mixing:
  rms(total) = 0.33388E-01    rms(broyden)= 0.33387E-01
  rms(prec ) = 0.44760E-01
  weight for this iteration     100.00

 eigenvalues of (default mixing * dielectric matrix)
  average eigenvalue GAMMA=   1.7411
  2.5125  1.8290  1.8290  0.7940

 Free energy of the ion-electron system (eV)
  ---------------------------------------------------
  alpha Z        PSCENC =         1.96423985
  Ewald energy   TEWEN  =      2629.98113996
  -Hartree energ DENC   =     -3549.61173691
  -exchange      EXHF   =         0.00000000
  -V(xc)+E(xc)   XCENC  =       -43.14345119
  PAW double counting   =      4047.16709942    -3885.55582428
  entropy T*S    EENTRO =        -0.00000000
  eigenvalues    EBANDS =      -540.88993827
  atomic energy  EATOM  =      1238.03527989
  Solvation  Ediel_sol  =         0.00000000
  ---------------------------------------------------
  free energy    TOTEN  =      -102.05319154 eV

  energy without entropy =     -102.05319154  energy(sigma->0) =     -102.05319154


--------------------------------------------------------------------------------------------------------




--------------------------------------- Iteration      1(  10)  ---------------------------------------


    POTLOK:  cpu time    1.7177: real time    1.7180
    SETDIJ:  cpu time    0.0080: real time    0.0075
     EDDAV:  cpu time   10.5814: real time   10.5833
       DOS:  cpu time    0.0000: real time    0.0003
    CHARGE:  cpu time    0.4909: real time    0.4909
    MIXING:  cpu time    0.0560: real time    0.0552
    --------------------------------------------
      LOOP:  cpu time   12.8540: real time   12.8552

 eigenvalue-minimisations  :   112
 total energy-change (2. order) :-0.3162630E-03  (-0.2984173E-03)
 number of electron      56.0000009 magnetization 
 augmentation part       -3.5253335 magnetization 

 Broyden mixing:
  rms(total) = 0.16198E-01    rms(broyden)= 0.16198E-01
  rms(prec ) = 0.29168E-01
  weight for this iteration     100.00

 eigenvalues of (default mixing * dielectric matrix)
  average eigenvalue GAMMA=   1.8663
  2.6733  2.2949  1.0579  1.6528  1.6528

 Free energy of the ion-electron system (eV)
  ---------------------------------------------------
  alpha Z        PSCENC =         1.96423985
  Ewald energy   TEWEN  =      2629.98113996
  -Hartree energ DENC   =     -3551.58619062
  -exchange      EXHF   =         0.00000000
  -V(xc)+E(xc)   XCENC  =       -43.14145504
  PAW double counting   =      3971.89269059    -3810.23647649
  entropy T*S    EENTRO =        -0.00000000
  eigenvalues    EBANDS =      -538.96273593
  atomic energy  EATOM  =      1238.03527989
  Solvation  Ediel_sol  =         0.00000000
  ---------------------------------------------------
  free energy    TOTEN  =      -102.05350780 eV

  energy without entropy =     -102.05350780  energy(sigma->0) =     -102.05350780


--------------------------------------------------------------------------------------------------------




--------------------------------------- Iteration      1(  11)  ---------------------------------------


    POTLOK:  cpu time    1.7397: real time    1.7577
    SETDIJ:  cpu time    0.0090: real time    0.0085
     EDDAV:  cpu time    9.9785: real time    9.9819
       DOS:  cpu time    0.0000: real time    0.0003
    CHARGE:  cpu time    0.4839: real time    0.4874
    MIXING:  cpu time    0.0590: real time    0.0586
    --------------------------------------------
      LOOP:  cpu time   12.2701: real time   12.2944

 eigenvalue-minimisations  :   104
 total energy-change (2. order) :-0.3235429E-04  (-0.6526974E-03)
 number of electron      56.0000009 magnetization 
 augmentation part       -3.5245368 magnetization 

 Broyden mixing:
  rms(total) = 0.77856E-02    rms(broyden)= 0.77852E-02
  rms(prec ) = 0.14410E-01
  weight for this iteration     100.00

 eigenvalues of (default mixing * dielectric matrix)
  average eigenvalue GAMMA=   1.8683
  3.2370  2.5759  1.7393  1.7393  1.0365  0.8818

 Free energy of the ion-electron system (eV)
  ---------------------------------------------------
  alpha Z        PSCENC =         1.96423985
  Ewald energy   TEWEN  =      2629.98113996
  -Hartree energ DENC   =     -3558.39621581
  -exchange      EXHF   =         0.00000000
  -V(xc)+E(xc)   XCENC  =       -42.95368135
  PAW double counting   =      3924.91311463    -3763.21149327
  entropy T*S    EENTRO =        -0.00000000
  eigenvalues    EBANDS =      -532.38592406
  atomic energy  EATOM  =      1238.03527989
  Solvation  Ediel_sol  =         0.00000000
  ---------------------------------------------------
  free energy    TOTEN  =      -102.05354016 eV

  energy without entropy =     -102.05354016  energy(sigma->0) =     -102.05354016


--------------------------------------------------------------------------------------------------------




--------------------------------------- Iteration      1(  12)  ---------------------------------------


    POTLOK:  cpu time    1.7357: real time    1.7397
    SETDIJ:  cpu time    0.0070: real time    0.0075
     EDDAV:  cpu time    9.2086: real time    9.2233
       DOS:  cpu time    0.0010: real time    0.0003
    CHARGE:  cpu time    0.4869: real time    0.4875
    MIXING:  cpu time    0.0610: real time    0.0622
    --------------------------------------------
      LOOP:  cpu time   11.5003: real time   11.5205

 eigenvalue-minimisations  :    94
 total energy-change (2. order) :-0.3770127E-02  (-0.1037846E-03)
 number of electron      56.0000009 magnetization 
 augmentation part       -3.5241005 magnetization 

 Broyden mixing:
  rms(total) = 0.57551E-02    rms(broyden)= 0.57550E-02
  rms(prec ) = 0.10087E-01
  weight for this iteration     100.00

 eigenvalues of (default mixing * dielectric matrix)
  average eigenvalue GAMMA=   2.1107
  4.6706  2.4989  2.4989  1.5983  1.5983  0.9548  0.9548

 Free energy of the ion-electron system (eV)
  ---------------------------------------------------
  alpha Z        PSCENC =         1.96423985
  Ewald energy   TEWEN  =      2629.98113996
  -Hartree energ DENC   =     -3560.68813480
  -exchange      EXHF   =         0.00000000
  -V(xc)+E(xc)   XCENC  =       -42.91004513
  PAW double counting   =      3917.24942997    -3755.54496496
  entropy T*S    EENTRO =        -0.00000000
  eigenvalues    EBANDS =      -530.14425507
  atomic energy  EATOM  =      1238.03527989
  Solvation  Ediel_sol  =         0.00000000
  ---------------------------------------------------
  free energy    TOTEN  =      -102.05731028 eV

  energy without entropy =     -102.05731028  energy(sigma->0) =     -102.05731028


--------------------------------------------------------------------------------------------------------




--------------------------------------- Iteration      1(  13)  ---------------------------------------


    POTLOK:  cpu time    1.7907: real time    1.7924
    SETDIJ:  cpu time    0.0080: real time    0.0078
     EDDAV:  cpu time    9.9875: real time   10.0024
       DOS:  cpu time    0.0000: real time    0.0004
    CHARGE:  cpu time    0.4879: real time    0.4923
    MIXING:  cpu time    0.0640: real time    0.0641
    --------------------------------------------
      LOOP:  cpu time   12.3381: real time   12.3593

 eigenvalue-minimisations  :   104
 total energy-change (2. order) :-0.5144857E-02  (-0.2040405E-03)
 number of electron      56.0000009 magnetization 
 augmentation part       -3.5237784 magnetization 

 Broyden mixing:
  rms(total) = 0.34113E-02    rms(broyden)= 0.34112E-02
  rms(prec ) = 0.50769E-02
  weight for this iteration     100.00

 eigenvalues of (default mixing * dielectric matrix)
  average eigenvalue GAMMA=   2.2050
  5.7326  2.8637  2.4167  1.7913  1.7913  0.9554  0.9554  1.1335

 Free energy of the ion-electron system (eV)
  ---------------------------------------------------
  alpha Z        PSCENC =         1.96423985
  Ewald energy   TEWEN  =      2629.98113996
  -Hartree energ DENC   =     -3563.66749043
  -exchange      EXHF   =         0.00000000
  -V(xc)+E(xc)   XCENC  =       -42.85745338
  PAW double counting   =      3922.36639834    -3760.67195737
  entropy T*S    EENTRO =        -0.00000000
  eigenvalues    EBANDS =      -527.21261199
  atomic energy  EATOM  =      1238.03527989
  Solvation  Ediel_sol  =         0.00000000
  ---------------------------------------------------
  free energy    TOTEN  =      -102.06245514 eV

  energy without entropy =     -102.06245514  energy(sigma->0) =     -102.06245514


--------------------------------------------------------------------------------------------------------




--------------------------------------- Iteration      1(  14)  ---------------------------------------


    POTLOK:  cpu time    1.7307: real time    1.7344
    SETDIJ:  cpu time    0.0080: real time    0.0076
     EDDAV:  cpu time   10.5644: real time   10.5811
       DOS:  cpu time    0.0000: real time    0.0003
    CHARGE:  cpu time    0.4839: real time    0.4848
    MIXING:  cpu time    0.0710: real time    0.0716
    --------------------------------------------
      LOOP:  cpu time   12.8590: real time   12.8798

 eigenvalue-minimisations  :   112
 total energy-change (2. order) :-0.4133754E-02  (-0.3437560E-04)
 number of electron      56.0000009 magnetization 
 augmentation part       -3.5232753 magnetization 

 Broyden mixing:
  rms(total) = 0.15576E-02    rms(broyden)= 0.15576E-02
  rms(prec ) = 0.27164E-02
  weight for this iteration     100.00

 eigenvalues of (default mixing * dielectric matrix)
  average eigenvalue GAMMA=   2.3838
  6.7105  3.0558  3.0558  2.2977  1.6823  1.6823  1.0691  0.9505  0.9505

 Free energy of the ion-electron system (eV)
  ---------------------------------------------------
  alpha Z        PSCENC =         1.96423985
  Ewald energy   TEWEN  =      2629.98113996
  -Hartree energ DENC   =     -3564.32636198
  -exchange      EXHF   =         0.00000000
  -V(xc)+E(xc)   XCENC  =       -42.87031537
  PAW double counting   =      3921.88867553    -3760.19519735
  entropy T*S    EENTRO =        -0.00000000
  eigenvalues    EBANDS =      -526.54404942
  atomic energy  EATOM  =      1238.03527989
  Solvation  Ediel_sol  =         0.00000000
  ---------------------------------------------------
  free energy    TOTEN  =      -102.06658889 eV

  energy without entropy =     -102.06658889  energy(sigma->0) =     -102.06658889


--------------------------------------------------------------------------------------------------------




--------------------------------------- Iteration      1(  15)  ---------------------------------------


    POTLOK:  cpu time    1.7277: real time    1.7289
    SETDIJ:  cpu time    0.0080: real time    0.0075
     EDDAV:  cpu time   10.3784: real time   10.3968
       DOS:  cpu time    0.0000: real time    0.0003
    CHARGE:  cpu time    0.4869: real time    0.4856
    MIXING:  cpu time    0.0780: real time    0.0786
    --------------------------------------------
      LOOP:  cpu time   12.6781: real time   12.6977

 eigenvalue-minimisations  :   110
 total energy-change (2. order) :-0.4770437E-02  (-0.6737097E-04)
 number of electron      56.0000009 magnetization 
 augmentation part       -3.5231779 magnetization 

 Broyden mixing:
  rms(total) = 0.16376E-02    rms(broyden)= 0.16376E-02
  rms(prec ) = 0.19674E-02
  weight for this iteration     100.00

 eigenvalues of (default mixing * dielectric matrix)
  average eigenvalue GAMMA=   2.3085
  6.8433  3.8527  2.6048  2.3025  1.7815  1.7815  1.1303  0.9438  0.9438  0.9003

 Free energy of the ion-electron system (eV)
  ---------------------------------------------------
  alpha Z        PSCENC =         1.96423985
  Ewald energy   TEWEN  =      2629.98113996
  -Hartree energ DENC   =     -3564.52420633
  -exchange      EXHF   =         0.00000000
  -V(xc)+E(xc)   XCENC  =       -42.88238879
  PAW double counting   =      3926.20145721    -3764.50580130
  entropy T*S    EENTRO =        -0.00000000
  eigenvalues    EBANDS =      -526.34107982
  atomic energy  EATOM  =      1238.03527989
  Solvation  Ediel_sol  =         0.00000000
  ---------------------------------------------------
  free energy    TOTEN  =      -102.07135933 eV

  energy without entropy =     -102.07135933  energy(sigma->0) =     -102.07135933


--------------------------------------------------------------------------------------------------------




--------------------------------------- Iteration      1(  16)  ---------------------------------------


    POTLOK:  cpu time    1.7397: real time    1.7930
    SETDIJ:  cpu time    0.0080: real time    0.0075
     EDDAV:  cpu time   10.6004: real time   10.5974
       DOS:  cpu time    0.0000: real time    0.0003
    CHARGE:  cpu time    0.4849: real time    0.4842
    MIXING:  cpu time    0.0870: real time    0.0869
    --------------------------------------------
      LOOP:  cpu time   12.9200: real time   12.9693

 eigenvalue-minimisations  :   112
 total energy-change (2. order) :-0.4786730E-03  (-0.1884600E-05)
 number of electron      56.0000009 magnetization 
 augmentation part       -3.5233044 magnetization 

 Broyden mixing:
  rms(total) = 0.77247E-03    rms(broyden)= 0.77245E-03
  rms(prec ) = 0.10712E-02
  weight for this iteration     100.00

 eigenvalues of (default mixing * dielectric matrix)
  average eigenvalue GAMMA=   2.4024
  7.3166  4.4972  2.6079  2.6079  1.8302  1.8302  1.6027  1.2536  0.9822  0.9488
  0.9488

 Free energy of the ion-electron system (eV)
  ---------------------------------------------------
  alpha Z        PSCENC =         1.96423985
  Ewald energy   TEWEN  =      2629.98113996
  -Hartree energ DENC   =     -3564.61402527
  -exchange      EXHF   =         0.00000000
  -V(xc)+E(xc)   XCENC  =       -42.87943534
  PAW double counting   =      3925.68231779    -3763.98626690
  entropy T*S    EENTRO =        -0.00000000
  eigenvalues    EBANDS =      -526.25508799
  atomic energy  EATOM  =      1238.03527989
  Solvation  Ediel_sol  =         0.00000000
  ---------------------------------------------------
  free energy    TOTEN  =      -102.07183801 eV

  energy without entropy =     -102.07183801  energy(sigma->0) =     -102.07183801


--------------------------------------------------------------------------------------------------------




--------------------------------------- Iteration      1(  17)  ---------------------------------------


    POTLOK:  cpu time    1.7247: real time    1.7245
    SETDIJ:  cpu time    0.0080: real time    0.0076
     EDDAV:  cpu time    9.7955: real time    9.7925
       DOS:  cpu time    0.0000: real time    0.0003
    CHARGE:  cpu time    0.4839: real time    0.4836
    MIXING:  cpu time    0.0970: real time    0.0975
    --------------------------------------------
      LOOP:  cpu time   12.1092: real time   12.1059

 eigenvalue-minimisations  :   102
 total energy-change (2. order) :-0.1107346E-02  (-0.9567058E-05)
 number of electron      56.0000009 magnetization 
 augmentation part       -3.5235154 magnetization 

 Broyden mixing:
  rms(total) = 0.29598E-03    rms(broyden)= 0.29591E-03
  rms(prec ) = 0.44446E-03
  weight for this iteration     100.00

 eigenvalues of (default mixing * dielectric matrix)
  average eigenvalue GAMMA=   2.3956
  7.6318  5.0932  2.7353  2.7353  1.8738  1.8738  1.7296  1.2474  1.0026  1.0026
  0.9220  0.8996

 Free energy of the ion-electron system (eV)
  ---------------------------------------------------
  alpha Z        PSCENC =         1.96423985
  Ewald energy   TEWEN  =      2629.98113996
  -Hartree energ DENC   =     -3564.65569026
  -exchange      EXHF   =         0.00000000
  -V(xc)+E(xc)   XCENC  =       -42.87903355
  PAW double counting   =      3924.00132000    -3762.30474201
  entropy T*S    EENTRO =        -0.00000000
  eigenvalues    EBANDS =      -526.21545922
  atomic energy  EATOM  =      1238.03527989
  Solvation  Ediel_sol  =         0.00000000
  ---------------------------------------------------
  free energy    TOTEN  =      -102.07294535 eV

  energy without entropy =     -102.07294535  energy(sigma->0) =     -102.07294535


--------------------------------------------------------------------------------------------------------




--------------------------------------- Iteration      1(  18)  ---------------------------------------


    POTLOK:  cpu time    1.7237: real time    1.7226
    SETDIJ:  cpu time    0.0080: real time    0.0075
     EDDAV:  cpu time   10.5714: real time   10.5686
       DOS:  cpu time    0.0000: real time    0.0004
    CHARGE:  cpu time    0.4889: real time    0.4877
    MIXING:  cpu time    0.1100: real time    0.1093
    --------------------------------------------
      LOOP:  cpu time   12.9020: real time   12.8961

 eigenvalue-minimisations  :   112
 total energy-change (2. order) :-0.2052441E-03  (-0.7608551E-06)
 number of electron      56.0000009 magnetization 
 augmentation part       -3.5235352 magnetization 

 Broyden mixing:
  rms(total) = 0.26499E-03    rms(broyden)= 0.26494E-03
  rms(prec ) = 0.34414E-03
  weight for this iteration     100.00

 eigenvalues of (default mixing * dielectric matrix)
  average eigenvalue GAMMA=   2.4907
  8.2708  5.6346  3.2789  2.6943  2.2458  1.7941  1.7941  1.3846  1.3846  0.9831
  0.9831  0.9655  0.9655

 Free energy of the ion-electron system (eV)
  ---------------------------------------------------
  alpha Z        PSCENC =         1.96423985
  Ewald energy   TEWEN  =      2629.98113996
  -Hartree energ DENC   =     -3564.67548379
  -exchange      EXHF   =         0.00000000
  -V(xc)+E(xc)   XCENC  =       -42.87927014
  PAW double counting   =      3923.75743140    -3762.06107417
  entropy T*S    EENTRO =        -0.00000000
  eigenvalues    EBANDS =      -526.19541359
  atomic energy  EATOM  =      1238.03527989
  Solvation  Ediel_sol  =         0.00000000
  ---------------------------------------------------
  free energy    TOTEN  =      -102.07315059 eV

  energy without entropy =     -102.07315059  energy(sigma->0) =     -102.07315059


--------------------------------------------------------------------------------------------------------




--------------------------------------- Iteration      1(  19)  ---------------------------------------


    POTLOK:  cpu time    1.7307: real time    1.7317
    SETDIJ:  cpu time    0.0080: real time    0.0075
     EDDAV:  cpu time    9.3696: real time    9.3663
       DOS:  cpu time    0.0000: real time    0.0004
    CHARGE:  cpu time    0.4929: real time    0.4924
    MIXING:  cpu time    0.1210: real time    0.1213
    --------------------------------------------
      LOOP:  cpu time   11.7222: real time   11.7196

 eigenvalue-minimisations  :    96
 total energy-change (2. order) :-0.1834377E-03  (-0.6342153E-06)
 number of electron      56.0000009 magnetization 
 augmentation part       -3.5235249 magnetization 

 Broyden mixing:
  rms(total) = 0.16749E-03    rms(broyden)= 0.16749E-03
  rms(prec ) = 0.20905E-03
  weight for this iteration     100.00

 eigenvalues of (default mixing * dielectric matrix)
  average eigenvalue GAMMA=   2.4515
  8.2443  6.1177  3.3270  2.6525  2.3557  1.8547  1.8547  1.4963  1.4963  1.1419
  0.9639  0.9639  0.9258  0.9258

 Free energy of the ion-electron system (eV)
  ---------------------------------------------------
  alpha Z        PSCENC =         1.96423985
  Ewald energy   TEWEN  =      2629.98113996
  -Hartree energ DENC   =     -3564.69381431
  -exchange      EXHF   =         0.00000000
  -V(xc)+E(xc)   XCENC  =       -42.87881826
  PAW double counting   =      3923.31371704    -3761.61772244
  entropy T*S    EENTRO =        -0.00000000
  eigenvalues    EBANDS =      -526.17735576
  atomic energy  EATOM  =      1238.03527989
  Solvation  Ediel_sol  =         0.00000000
  ---------------------------------------------------
  free energy    TOTEN  =      -102.07333403 eV

  energy without entropy =     -102.07333403  energy(sigma->0) =     -102.07333403


--------------------------------------------------------------------------------------------------------




--------------------------------------- Iteration      1(  20)  ---------------------------------------


    POTLOK:  cpu time    1.7387: real time    1.7376
    SETDIJ:  cpu time    0.0070: real time    0.0076
     EDDAV:  cpu time    8.8207: real time    8.8182
       DOS:  cpu time    0.0000: real time    0.0003
    CHARGE:  cpu time    0.4849: real time    0.4851
    MIXING:  cpu time    0.1300: real time    0.1304
    --------------------------------------------
      LOOP:  cpu time   11.1813: real time   11.1791

 eigenvalue-minimisations  :    88
 total energy-change (2. order) :-0.3857860E-04  (-0.7788808E-07)
 number of electron      56.0000009 magnetization 
 augmentation part       -3.5234911 magnetization 

 Broyden mixing:
  rms(total) = 0.80281E-04    rms(broyden)= 0.80279E-04
  rms(prec ) = 0.10580E-03
  weight for this iteration     100.00

 eigenvalues of (default mixing * dielectric matrix)
  average eigenvalue GAMMA=   2.4985
  8.4325  6.3437  3.8493  2.8064  2.7222  1.8259  1.8259  1.8330  1.4426  1.4426
  1.1552  0.9801  0.9801  0.9471  0.8906

 Free energy of the ion-electron system (eV)
  ---------------------------------------------------
  alpha Z        PSCENC =         1.96423985
  Ewald energy   TEWEN  =      2629.98113996
  -Hartree energ DENC   =     -3564.70296548
  -exchange      EXHF   =         0.00000000
  -V(xc)+E(xc)   XCENC  =       -42.87929985
  PAW double counting   =      3923.48323478    -3761.78737505
  entropy T*S    EENTRO =        -0.00000000
  eigenvalues    EBANDS =      -526.16762671
  atomic energy  EATOM  =      1238.03527989
  Solvation  Ediel_sol  =         0.00000000
  ---------------------------------------------------
  free energy    TOTEN  =      -102.07337261 eV

  energy without entropy =     -102.07337261  energy(sigma->0) =     -102.07337261


--------------------------------------------------------------------------------------------------------




--------------------------------------- Iteration      1(  21)  ---------------------------------------


    POTLOK:  cpu time    1.7317: real time    1.7502
    SETDIJ:  cpu time    0.0080: real time    0.0079
     EDDAV:  cpu time    8.0258: real time    8.0392
       DOS:  cpu time    0.0000: real time    0.0003
    CHARGE:  cpu time    0.4879: real time    0.4873
    MIXING:  cpu time    0.1420: real time    0.1436
    --------------------------------------------
      LOOP:  cpu time   10.3954: real time   10.4285

 eigenvalue-minimisations  :    78
 total energy-change (2. order) :-0.3535561E-04  (-0.1016401E-06)
 number of electron      56.0000009 magnetization 
 augmentation part       -3.5234707 magnetization 

 Broyden mixing:
  rms(total) = 0.59244E-04    rms(broyden)= 0.59236E-04
  rms(prec ) = 0.76408E-04
  weight for this iteration     100.00

 eigenvalues of (default mixing * dielectric matrix)
  average eigenvalue GAMMA=   2.5005
  8.5638  6.6111  4.1693  3.0058  2.6811  2.2192  1.8718  1.8718  1.5306  1.5306
  1.1365  1.0037  1.0037  0.9311  0.9391  0.9391

 Free energy of the ion-electron system (eV)
  ---------------------------------------------------
  alpha Z        PSCENC =         1.96423985
  Ewald energy   TEWEN  =      2629.98113996
  -Hartree energ DENC   =     -3564.70929611
  -exchange      EXHF   =         0.00000000
  -V(xc)+E(xc)   XCENC  =       -42.87936187
  PAW double counting   =      3923.76723418    -3762.07137206
  entropy T*S    EENTRO =        -0.00000000
  eigenvalues    EBANDS =      -526.16127180
  atomic energy  EATOM  =      1238.03527989
  Solvation  Ediel_sol  =         0.00000000
  ---------------------------------------------------
  free energy    TOTEN  =      -102.07340797 eV

  energy without entropy =     -102.07340797  energy(sigma->0) =     -102.07340797


--------------------------------------------------------------------------------------------------------




--------------------------------------- Iteration      1(  22)  ---------------------------------------


    POTLOK:  cpu time    1.7157: real time    1.7182
    SETDIJ:  cpu time    0.0110: real time    0.0106
     EDDAV:  cpu time    8.1948: real time    8.2071
       DOS:  cpu time    0.0000: real time    0.0003
    CHARGE:  cpu time    0.4799: real time    0.4817
    MIXING:  cpu time    0.1540: real time    0.1546
    --------------------------------------------
      LOOP:  cpu time   10.5554: real time   10.5725

 eigenvalue-minimisations  :    80
 total energy-change (2. order) :-0.7027586E-05  (-0.2255931E-07)
 number of electron      56.0000009 magnetization 
 augmentation part       -3.5234826 magnetization 

 Broyden mixing:
  rms(total) = 0.29937E-04    rms(broyden)= 0.29936E-04
  rms(prec ) = 0.35864E-04
  weight for this iteration     100.00

 eigenvalues of (default mixing * dielectric matrix)
  average eigenvalue GAMMA=   2.4906
  8.7982  6.6823  4.5707  3.0912  2.4814  2.4814  1.7916  1.7916  1.6590  1.6590
  1.2358  1.2358  1.0503  0.9660  0.9660  0.9607  0.9202

 Free energy of the ion-electron system (eV)
  ---------------------------------------------------
  alpha Z        PSCENC =         1.96423985
  Ewald energy   TEWEN  =      2629.98113996
  -Hartree energ DENC   =     -3564.70644622
  -exchange      EXHF   =         0.00000000
  -V(xc)+E(xc)   XCENC  =       -42.87931186
  PAW double counting   =      3923.77999176    -3762.08397436
  entropy T*S    EENTRO =        -0.00000000
  eigenvalues    EBANDS =      -526.16433401
  atomic energy  EATOM  =      1238.03527989
  Solvation  Ediel_sol  =         0.00000000
  ---------------------------------------------------
  free energy    TOTEN  =      -102.07341499 eV

  energy without entropy =     -102.07341499  energy(sigma->0) =     -102.07341499


--------------------------------------------------------------------------------------------------------




--------------------------------------- Iteration      1(  23)  ---------------------------------------


    POTLOK:  cpu time    1.7137: real time    1.7163
    SETDIJ:  cpu time    0.0080: real time    0.0081
     EDDAV:  cpu time    8.7747: real time    8.7917
       DOS:  cpu time    0.0010: real time    0.0003
    CHARGE:  cpu time    0.4939: real time    0.4931
    MIXING:  cpu time    0.1680: real time    0.1687
    --------------------------------------------
      LOOP:  cpu time   11.1593: real time   11.1781

 eigenvalue-minimisations  :    88
 total energy-change (2. order) :-0.3126469E-05  (-0.6238187E-08)
 number of electron      56.0000009 magnetization 
 augmentation part       -3.5234856 magnetization 

 Broyden mixing:
  rms(total) = 0.16252E-04    rms(broyden)= 0.16252E-04
  rms(prec ) = 0.21461E-04
  weight for this iteration     100.00

 eigenvalues of (default mixing * dielectric matrix)
  average eigenvalue GAMMA=   2.5309
  8.8307  6.8650  4.8464  3.2625  2.6902  2.6902  2.4250  1.8294  1.8294  1.5621
  1.5621  1.1413  1.1413  0.9308  0.9308  1.0191  0.9998  0.9998

 Free energy of the ion-electron system (eV)
  ---------------------------------------------------
  alpha Z        PSCENC =         1.96423985
  Ewald energy   TEWEN  =      2629.98113996
  -Hartree energ DENC   =     -3564.70610763
  -exchange      EXHF   =         0.00000000
  -V(xc)+E(xc)   XCENC  =       -42.87943851
  PAW double counting   =      3923.68791986    -3761.99190819
  entropy T*S    EENTRO =        -0.00000000
  eigenvalues    EBANDS =      -526.16454334
  atomic energy  EATOM  =      1238.03527989
  Solvation  Ediel_sol  =         0.00000000
  ---------------------------------------------------
  free energy    TOTEN  =      -102.07341812 eV

  energy without entropy =     -102.07341812  energy(sigma->0) =     -102.07341812


--------------------------------------------------------------------------------------------------------




--------------------------------------- Iteration      1(  24)  ---------------------------------------


    POTLOK:  cpu time    1.7307: real time    1.7370
    SETDIJ:  cpu time    0.0080: real time    0.0075
     EDDAV:  cpu time    8.2058: real time    8.2190
       DOS:  cpu time    0.0000: real time    0.0003
    CHARGE:  cpu time    0.4829: real time    0.4851
    MIXING:  cpu time    0.1800: real time    0.1797
    --------------------------------------------
      LOOP:  cpu time   10.6074: real time   10.6286

 eigenvalue-minimisations  :    80
 total energy-change (2. order) :-0.3523619E-05  (-0.6538301E-08)
 number of electron      56.0000009 magnetization 
 augmentation part       -3.5234868 magnetization 

 Broyden mixing:
  rms(total) = 0.73255E-05    rms(broyden)= 0.73253E-05
  rms(prec ) = 0.92192E-05
  weight for this iteration     100.00

 eigenvalues of (default mixing * dielectric matrix)
  average eigenvalue GAMMA=   2.5423
  8.8666  7.0781  5.4050  3.8917  2.8671  2.5788  2.1970  1.7515  1.7515  1.7185
  1.7185  1.2717  1.2206  1.2206  0.9746  0.9746  0.9697  0.9243  0.9243

 Free energy of the ion-electron system (eV)
  ---------------------------------------------------
  alpha Z        PSCENC =         1.96423985
  Ewald energy   TEWEN  =      2629.98113996
  -Hartree energ DENC   =     -3564.70722161
  -exchange      EXHF   =         0.00000000
  -V(xc)+E(xc)   XCENC  =       -42.87936960
  PAW double counting   =      3923.66752484    -3761.97153999
  entropy T*S    EENTRO =        -0.00000000
  eigenvalues    EBANDS =      -526.16347499
  atomic energy  EATOM  =      1238.03527989
  Solvation  Ediel_sol  =         0.00000000
  ---------------------------------------------------
  free energy    TOTEN  =      -102.07342164 eV

  energy without entropy =     -102.07342164  energy(sigma->0) =     -102.07342164


--------------------------------------------------------------------------------------------------------




--------------------------------------- Iteration      1(  25)  ---------------------------------------


    POTLOK:  cpu time    1.7337: real time    1.7401
    SETDIJ:  cpu time    0.0080: real time    0.0076
     EDDAV:  cpu time    8.1658: real time    8.1789
       DOS:  cpu time    0.0000: real time    0.0004
    --------------------------------------------
      LOOP:  cpu time    9.9075: real time    9.9269

 eigenvalue-minimisations  :    80
 total energy-change (2. order) :-0.5391139E-06  (-0.1180538E-08)
 number of electron      56.0000009 magnetization 
 augmentation part       -3.5234868 magnetization 

 Free energy of the ion-electron system (eV)
  ---------------------------------------------------
  alpha Z        PSCENC =         1.96423985
  Ewald energy   TEWEN  =      2629.98113996
  -Hartree energ DENC   =     -3564.70737272
  -exchange      EXHF   =         0.00000000
  -V(xc)+E(xc)   XCENC  =       -42.87935292
  PAW double counting   =      3923.68114651    -3761.98514931
  entropy T*S    EENTRO =        -0.00000000
  eigenvalues    EBANDS =      -526.16335344
  atomic energy  EATOM  =      1238.03527989
  Solvation  Ediel_sol  =         0.00000000
  ---------------------------------------------------
  free energy    TOTEN  =      -102.07342218 eV

  energy without entropy =     -102.07342218  energy(sigma->0) =     -102.07342218


--------------------------------------------------------------------------------------------------------




 average (electrostatic) potential at core
  the test charge radii are     0.9892  1.1631  0.5201
  (the norm of the test charge is              1.0000)
       1 -93.3983       2 -93.4233       3 -93.4233       4 -93.3983       5 -93.3983
       6 -93.4234       7 -40.4352       8 -40.4697       9 -40.4352      10 -40.4351
      11 -40.6993      12 -40.7084      13 -40.7001      14 -41.0615      15 -41.0611
      16 -40.7090      17 -40.7003      18 -40.7002      19 -41.0457      20 -41.0611
      21 -41.0613      22 -40.7003      23 -40.6995      24 -40.7090      25 -41.0610
      26 -41.0612
 
 
 
 E-fermi :  -5.3917     XC(G=0):  -0.6083     alpha+bet : -0.3388


 k-point     1 :       0.0000    0.0000    0.0000
  band No.  band energies     occupation 
      1     -15.2902      2.00000
      2     -14.0650      2.00000
      3     -14.0650      2.00000
      4     -14.0395      2.00000
      5     -12.8835      2.00000
      6     -12.8835      2.00000
      7     -11.7605      2.00000
      8     -11.3307      2.00000
      9     -11.3307      2.00000
     10     -10.3786      2.00000
     11      -8.9559      2.00000
     12      -8.6297      2.00000
     13      -8.6296      2.00000
     14      -8.6120      2.00000
     15      -8.1849      2.00000
     16      -8.1849      2.00000
     17      -8.1709      2.00000
     18      -7.8646      2.00000
     19      -7.8535      2.00000
     20      -7.8535      2.00000
     21      -6.7817      2.00000
     22      -6.7816      2.00000
     23      -6.4870      2.00000
     24      -6.4785      2.00000
     25      -6.4785      2.00000
     26      -6.3740      2.00000
     27      -6.3668      2.00000
     28      -6.3668      2.00000
     29      -1.7603      0.00000
     30      -1.4757      0.00000
     31      -1.2457      0.00000
     32      -1.2456      0.00000
     33      -1.1469      0.00000
     34      -1.1301      0.00000
     35      -1.1298      0.00000
     36      -0.9732      0.00000
     37      -0.9731      0.00000
     38      -0.5539      0.00000
     39      -0.4280      0.00000
     40      -0.4278      0.00000
     41      -0.2503      0.00000
     42      -0.2017      0.00000


--------------------------------------------------------------------------------------------------------


 soft charge-density along one line, spin component           1
         0         1         2         3         4         5         6         7         8         9
 total charge-density along one line
 
 pseudopotential strength for first ion, spin component:           1
 19.613  27.371   0.001   0.003   0.001   0.002   0.005   0.002
 27.371  38.202   0.002   0.004   0.002   0.003   0.007   0.003
  0.001   0.002   4.359   0.000   0.000   8.131   0.000   0.000
  0.003   0.004   0.000   4.359   0.000   0.000   8.131   0.000
  0.001   0.002   0.000   0.000   4.359   0.000   0.000   8.131
  0.002   0.003   8.131   0.000   0.000  15.178   0.001   0.001
  0.005   0.007   0.000   8.131   0.000   0.001  15.177   0.001
  0.002   0.003   0.000   0.000   8.131   0.001   0.001  15.177
 total augmentation occupancy for first ion, spin component:           1
  5.556  -2.037   0.052  -0.340  -0.055  -0.015   0.102   0.017
 -2.037   0.810  -0.035   0.205   0.032   0.009  -0.045  -0.006
  0.052  -0.035   2.836  -0.110  -0.029  -0.615   0.038   0.008
 -0.340   0.205  -0.110   3.284   0.051   0.038  -0.775  -0.019
 -0.055   0.032  -0.029   0.051   2.841   0.009  -0.020  -0.614
 -0.015   0.009  -0.615   0.038   0.009   0.140  -0.011  -0.002
  0.102  -0.045   0.038  -0.775  -0.020  -0.011   0.186   0.006
  0.017  -0.006   0.008  -0.019  -0.614  -0.002   0.006   0.139


------------------------ aborting loop because EDIFF is reached ----------------------------------------


    CHARGE:  cpu time    0.4799: real time    0.4804
    FORLOC:  cpu time    0.1740: real time    0.1742
    FORNL :  cpu time    1.0778: real time    1.0789
    STRESS:  cpu time    7.9008: real time    7.9104
    FORCOR:  cpu time    1.7147: real time    1.7188
    FORHAR:  cpu time    0.5789: real time    0.5817
    MIXING:  cpu time    0.1920: real time    0.1913
    OFIELD:  cpu time    0.0000: real time    0.0000

  FORCE on cell =-STRESS in cart. coord.  units (eV):
  Direction    XX          YY          ZZ          XY          YZ          ZX
  --------------------------------------------------------------------------------------
  Alpha Z     1.96424     1.96424     1.96424
  Ewald     876.64706   876.62235   876.71007    -0.21850     0.02563    -0.50464
  Hartree  1188.31075  1188.00036  1188.39735    -0.46917    -0.21616    -0.64196
  E(xc)    -177.18203  -177.14358  -177.18450     0.03700     0.03513     0.02124
  Local   -2568.28086 -2567.94273 -2568.42978     0.69012     0.19282     1.14846
  n-local   273.01234   272.84893   273.02320    -0.15758    -0.14985    -0.09029
  augment   -27.46479   -27.47662   -27.46387    -0.01050    -0.00997    -0.00591
  Kinetic   429.18501   429.26387   429.17932     0.07637     0.07283     0.04368
  Fock        0.00000     0.00000     0.00000     0.00000     0.00000     0.00000
  -------------------------------------------------------------------------------------
  Total      -3.80829    -3.86318    -3.80397    -0.05226    -0.04956    -0.02942
  in kB      -0.76269    -0.77369    -0.76183    -0.01047    -0.00992    -0.00589
  external pressure =       -0.77 kB  Pullay stress =        0.00 kB


 VOLUME and BASIS-vectors are now :
 -----------------------------------------------------------------------------
  energy-cutoff  :      400.00
[...]
    SETDIJ:  cpu time    0.0080: real time    0.0075
     EDDAV:  cpu time   10.6054: real time   10.6011
       DOS:  cpu time    0.0000: real time    0.0004
    CHARGE:  cpu time    0.4839: real time    0.4838
    MIXING:  cpu time    0.0460: real time    0.0464
    --------------------------------------------
      LOOP:  cpu time   12.8910: real time   12.8861

 eigenvalue-minimisations  :   112
 total energy-change (2. order) :-0.6791310E-05  (-0.1741158E-04)
 number of electron      55.9999956 magnetization 
 augmentation part       -3.5166720 magnetization 

 Broyden mixing:
  rms(total) = 0.15370E-02    rms(broyden)= 0.15367E-02
  rms(prec ) = 0.16408E-02
  weight for this iteration     100.00

 eigenvalues of (default mixing * dielectric matrix)
  average eigenvalue GAMMA=   1.1811
  1.1811

 Free energy of the ion-electron system (eV)
  ---------------------------------------------------
  alpha Z        PSCENC =         1.96423985
  Ewald energy   TEWEN  =      2645.24997600
  -Hartree energ DENC   =     -3579.13161349
  -exchange      EXHF   =         0.00000000
  -V(xc)+E(xc)   XCENC  =       -42.18934345
  PAW double counting   =      4203.22848248    -4041.63090132
  entropy T*S    EENTRO =        -0.00000000
  eigenvalues    EBANDS =      -527.88698745
  atomic energy  EATOM  =      1238.03527989
  Solvation  Ediel_sol  =         0.00000000
  ---------------------------------------------------
  free energy    TOTEN  =      -102.36086750 eV

  energy without entropy =     -102.36086750  energy(sigma->0) =     -102.36086750


--------------------------------------------------------------------------------------------------------




--------------------------------------- Iteration     18(   3)  ---------------------------------------


    POTLOK:  cpu time    1.7477: real time    1.7461
    SETDIJ:  cpu time    0.0070: real time    0.0079
     EDDAV:  cpu time   11.2443: real time   11.2407
       DOS:  cpu time    0.0000: real time    0.0003
    CHARGE:  cpu time    0.4949: real time    0.4944
    MIXING:  cpu time    0.0490: real time    0.0482
    --------------------------------------------
      LOOP:  cpu time   13.5429: real time   13.5376

 eigenvalue-minimisations  :   120
 total energy-change (2. order) : 0.2160897E-05  (-0.9105547E-06)
 number of electron      55.9999956 magnetization 
 augmentation part       -3.5167324 magnetization 

 Broyden mixing:
  rms(total) = 0.75516E-03    rms(broyden)= 0.75513E-03
  rms(prec ) = 0.80171E-03
  weight for this iteration     100.00

 eigenvalues of (default mixing * dielectric matrix)
  average eigenvalue GAMMA=   1.6073
  0.9954  2.2192

 Free energy of the ion-electron system (eV)
  ---------------------------------------------------
  alpha Z        PSCENC =         1.96423985
  Ewald energy   TEWEN  =      2645.24997600
  -Hartree energ DENC   =     -3579.13200729
  -exchange      EXHF   =         0.00000000
  -V(xc)+E(xc)   XCENC  =       -42.18839182
  PAW double counting   =      4203.31974137    -4041.72210026
  entropy T*S    EENTRO =        -0.00000000
  eigenvalues    EBANDS =      -527.88760308
  atomic energy  EATOM  =      1238.03527989
  Solvation  Ediel_sol  =         0.00000000
  ---------------------------------------------------
  free energy    TOTEN  =      -102.36086534 eV

  energy without entropy =     -102.36086534  energy(sigma->0) =     -102.36086534


--------------------------------------------------------------------------------------------------------




--------------------------------------- Iteration     18(   4)  ---------------------------------------


    POTLOK:  cpu time    1.7437: real time    1.7444
    SETDIJ:  cpu time    0.0080: real time    0.0078
     EDDAV:  cpu time   10.0145: real time   10.0110
       DOS:  cpu time    0.0000: real time    0.0003
    --------------------------------------------
      LOOP:  cpu time   11.7662: real time   11.7634

 eigenvalue-minimisations  :   104
 total energy-change (2. order) : 0.2479860E-06  (-0.2574421E-06)
 number of electron      55.9999956 magnetization 
 augmentation part       -3.5167324 magnetization 

 Free energy of the ion-electron system (eV)
  ---------------------------------------------------
  alpha Z        PSCENC =         1.96423985
  Ewald energy   TEWEN  =      2645.24997600
  -Hartree energ DENC   =     -3579.13261152
  -exchange      EXHF   =         0.00000000
  -V(xc)+E(xc)   XCENC  =       -42.18785572
  PAW double counting   =      4203.44437160    -4041.84666350
  entropy T*S    EENTRO =        -0.00000000
  eigenvalues    EBANDS =      -527.88760169
  atomic energy  EATOM  =      1238.03527989
  Solvation  Ediel_sol  =         0.00000000
  ---------------------------------------------------
  free energy    TOTEN  =      -102.36086509 eV

  energy without entropy =     -102.36086509  energy(sigma->0) =     -102.36086509


--------------------------------------------------------------------------------------------------------




 average (electrostatic) potential at core
  the test charge radii are     0.9892  1.1631  0.5201
  (the norm of the test charge is              1.0000)
       1 -93.3294       2 -93.2739       3 -93.2737       4 -93.3294       5 -93.3291
       6 -93.2738       7 -40.4295       8 -40.4999       9 -40.4295      10 -40.4296
      11 -40.8405      12 -40.8376      13 -40.8886      14 -40.9800      15 -40.9801
      16 -40.8380      17 -40.8404      18 -40.8892      19 -41.0209      20 -40.9800
      21 -40.9798      22 -40.8891      23 -40.8403      24 -40.8378      25 -40.9800
      26 -40.9800
 
 
 
 E-fermi :  -5.3473     XC(G=0):  -0.6049     alpha+bet : -0.3388


 k-point     1 :       0.0000    0.0000    0.0000
  band No.  band energies     occupation 
      1     -15.1494      2.00000
      2     -14.1206      2.00000
      3     -14.0585      2.00000
      4     -14.0584      2.00000
      5     -12.9863      2.00000
      6     -12.9862      2.00000
      7     -11.7839      2.00000
      8     -11.4616      2.00000
      9     -11.4614      2.00000
     10     -10.5041      2.00000
     11      -9.0480      2.00000
     12      -8.7181      2.00000
     13      -8.5873      2.00000
     14      -8.5872      2.00000
     15      -8.1877      2.00000
     16      -8.1876      2.00000
     17      -8.0715      2.00000
     18      -7.9262      2.00000
     19      -7.9261      2.00000
     20      -7.8802      2.00000
     21      -6.8314      2.00000
     22      -6.8312      2.00000
     23      -6.5737      2.00000
     24      -6.5171      2.00000
     25      -6.5169      2.00000
     26      -6.4076      2.00000
     27      -6.2878      2.00000
     28      -6.2876      2.00000
     29      -1.6976      0.00000
     30      -1.4800      0.00000
     31      -1.3395      0.00000
     32      -1.2595      0.00000
     33      -1.2593      0.00000
     34      -1.1401      0.00000
     35      -1.1400      0.00000
     36      -0.9059      0.00000
     37      -0.9057      0.00000
     38      -0.4009      0.00000
     39      -0.3421      0.00000
     40      -0.3418      0.00000
     41      -0.2109      0.00000
     42      -0.1139      0.00000


--------------------------------------------------------------------------------------------------------


 soft charge-density along one line, spin component           1
         0         1         2         3         4         5         6         7         8         9
 total charge-density along one line
 
 pseudopotential strength for first ion, spin component:           1
 19.614  27.371   0.001   0.003   0.001   0.003   0.006   0.003
 27.371  38.202   0.002   0.004   0.002   0.004   0.008   0.004
  0.001   0.002   4.361   0.000   0.000   8.136   0.000   0.000
  0.003   0.004   0.000   4.362   0.000   0.000   8.136   0.000
  0.001   0.002   0.000   0.000   4.361   0.000   0.000   8.135
  0.003   0.004   8.136   0.000   0.000  15.186   0.000   0.001
  0.006   0.008   0.000   8.136   0.000   0.000  15.187   0.001
  0.003   0.004   0.000   0.000   8.135   0.001   0.001  15.185
 total augmentation occupancy for first ion, spin component:           1
  5.918  -2.233  -0.017  -0.470  -0.117   0.008   0.147   0.038
 -2.233   0.902  -0.003   0.268   0.061  -0.001  -0.066  -0.016
 -0.017  -0.003   2.926  -0.171  -0.081  -0.643   0.055   0.022
 -0.470   0.268  -0.171   3.523   0.038   0.055  -0.847  -0.017
 -0.117   0.061  -0.081   0.038   2.985   0.022  -0.017  -0.657
  0.008  -0.001  -0.643   0.055   0.022   0.148  -0.015  -0.005
  0.147  -0.066   0.055  -0.847  -0.017  -0.015   0.207   0.006
  0.038  -0.016   0.022  -0.017  -0.657  -0.005   0.006   0.151


------------------------ aborting loop because EDIFF is reached ----------------------------------------


    CHARGE:  cpu time    0.4769: real time    0.4778
    FORLOC:  cpu time    0.1730: real time    0.1730
    FORNL :  cpu time    1.0748: real time    1.0743
    STRESS:  cpu time    8.0918: real time    8.0891
    FORCOR:  cpu time    1.7217: real time    1.7208
    FORHAR:  cpu time    0.5849: real time    0.5854
    MIXING:  cpu time    0.0500: real time    0.0496
    OFIELD:  cpu time    0.0000: real time    0.0000

  FORCE on cell =-STRESS in cart. coord.  units (eV):
  Direction    XX          YY          ZZ          XY          YZ          ZX
  --------------------------------------------------------------------------------------
  Alpha Z     1.96424     1.96424     1.96424
  Ewald     881.92958   881.35494   881.96380    -1.20090    -0.94503    -1.10262
  Hartree  1193.03868  1193.05186  1193.04829    -0.60843    -0.37369    -0.74379
  E(xc)    -177.93510  -177.91124  -177.93668     0.02320     0.02195     0.01338
  Local   -2579.36517 -2578.46692 -2579.42670     2.13113     1.62512     2.03189
  n-local   274.25321   273.88482   274.27744    -0.35777    -0.34104    -0.20790
  augment   -27.67544   -27.63877   -27.67720     0.03381     0.03196     0.01972
  Kinetic   432.92872   432.75840   432.93434    -0.15640    -0.14649    -0.08701
  Fock        0.00000     0.00000     0.00000     0.00000     0.00000     0.00000
  -------------------------------------------------------------------------------------
  Total      -0.86129    -1.00267    -0.85247    -0.13535    -0.12722    -0.07634
  in kB      -0.17249    -0.20081    -0.17073    -0.02711    -0.02548    -0.01529
  external pressure =       -0.18 kB  Pullay stress =        0.00 kB


 VOLUME and BASIS-vectors are now :
 -----------------------------------------------------------------------------
  energy-cutoff  :      400.00
  volume of cell :     8000.00
      direct lattice vectors                 reciprocal lattice vectors
    20.000000000  0.000000000  0.000000000     0.050000000  0.000000000  0.000000000
     0.000000000 20.000000000  0.000000000     0.000000000  0.050000000  0.000000000
     0.000000000  0.000000000 20.000000000     0.000000000  0.000000000  0.050000000

  length of vectors
    20.000000000 20.000000000 20.000000000     0.050000000  0.050000000  0.050000000


 FORCES acting on ions
    electron-ion (+dipol)            ewald-force                    non-local-force                 convergence-correction
 -----------------------------------------------------------------------------------------------
   0.106E+02 -.215E+02 0.885E+02   -.112E+02 0.210E+02 -.900E+02   0.589E+00 0.515E+00 0.148E+01   -.567E-03 -.695E-03 -.103E-02
   0.887E+02 -.613E+01 0.467E+02   -.902E+02 0.624E+01 -.475E+02   0.150E+01 -.102E+00 0.789E+00   -.588E-03 -.317E-03 -.406E-03
   -.378E+02 0.538E+02 0.761E+02   0.384E+02 -.547E+02 -.774E+02   -.639E+00 0.911E+00 0.129E+01   -.491E-04 -.560E-03 -.521E-03
   0.810E+02 0.109E+02 -.417E+02   -.825E+02 -.118E+02 0.417E+02   0.142E+01 0.895E+00 -.472E-01   -.100E-02 -.902E-03 -.234E-03
   -.531E+02 0.742E+02 -.104E+02   0.533E+02 -.758E+02 0.100E+02   -.158E+00 0.164E+01 0.320E+00   -.179E-03 -.129E-02 -.413E-03
   0.289E+02 0.840E+02 -.469E+02   -.294E+02 -.854E+02 0.477E+02   0.488E+00 0.143E+01 -.793E+00   -.325E-03 -.701E-03 -.131E-04
   -.298E+02 -.849E+02 0.447E+02   0.300E+02 0.855E+02 -.453E+02   -.162E+00 -.645E+00 0.611E+00   -.251E-03 -.364E-04 -.102E-02
   -.439E+02 -.722E+02 -.417E+02   0.442E+02 0.727E+02 0.419E+02   -.304E+00 -.502E+00 -.289E+00   0.194E-03 0.303E-03 0.184E-03
   -.885E+02 0.358E+01 -.472E+02   0.893E+02 -.386E+01 0.476E+02   -.780E+00 0.286E+00 -.351E+00   0.365E-03 -.965E-03 -.360E-04
   0.357E+02 -.552E+02 -.760E+02   -.362E+02 0.555E+02 0.767E+02   0.524E+00 -.331E+00 -.656E+00   -.930E-03 -.348E-03 0.278E-03
   0.213E+02 0.418E+02 0.599E+01   -.227E+02 -.441E+02 -.722E+01   0.137E+01 0.230E+01 0.123E+01   0.760E-04 0.108E-03 0.112E-03
   0.925E+00 0.224E+02 -.416E+02   -.553E+00 -.231E+02 0.445E+02   -.373E+00 0.623E+00 -.286E+01   -.966E-04 -.171E-03 -.668E-04
   -.269E+02 0.408E+02 -.444E+01   0.285E+02 -.432E+02 0.469E+01   -.158E+01 0.243E+01 -.255E+00   0.829E-05 -.134E-03 -.282E-04
   -.442E+02 -.339E+01 0.536E+01   0.465E+02 0.371E+01 -.641E+01   -.226E+01 -.336E+00 0.105E+01   0.173E-03 -.128E-03 -.120E-03
   -.202E+02 0.771E+01 -.393E+02   0.206E+02 -.824E+01 0.418E+02   -.372E+00 0.526E+00 -.243E+01   0.259E-04 -.195E-03 0.150E-03
   -.372E+02 0.506E+01 0.287E+02   0.399E+02 -.465E+01 -.300E+02   -.262E+01 -.405E+00 0.129E+01   -.750E-04 -.162E-03 -.110E-03
   0.853E+01 0.362E+02 0.294E+02   -.984E+01 -.384E+02 -.308E+02   0.131E+01 0.227E+01 0.135E+01   0.111E-03 0.123E-03 0.432E-04
   0.667E+01 -.952E+01 0.475E+02   -.707E+01 0.101E+02 -.503E+02   0.400E+00 -.550E+00 0.283E+01   -.496E-04 -.462E-04 -.120E-03
   -.216E+02 -.354E+02 -.205E+02   0.227E+02 0.373E+02 0.216E+02   -.115E+01 -.190E+01 -.109E+01   0.124E-03 0.202E-03 0.118E-03
   0.280E+01 -.324E+01 -.445E+02   -.253E+01 0.275E+01 0.470E+02   -.288E+00 0.486E+00 -.245E+01   -.105E-03 -.134E-03 0.187E-03
   0.246E+02 -.360E+02 -.108E+02   -.261E+02 0.381E+02 0.106E+02   0.141E+01 -.207E+01 0.197E+00   -.240E-03 0.670E-04 -.248E-04
   0.436E+02 0.752E+01 -.209E+02   -.462E+02 -.798E+01 0.222E+02   0.260E+01 0.454E+00 -.123E+01   -.122E-03 -.772E-04 0.331E-05
   0.326E+02 0.248E+02 0.239E+02   -.340E+02 -.270E+02 -.252E+02   0.143E+01 0.221E+01 0.132E+01   0.426E-04 0.159E-03 0.620E-04
   0.352E+02 -.293E+02 0.119E+02   -.368E+02 0.317E+02 -.122E+02   0.165E+01 -.243E+01 0.296E+00   -.115E-03 -.145E-03 -.101E-03
   0.125E+02 -.414E+02 0.117E+02   -.139E+02 0.435E+02 -.120E+02   0.137E+01 -.209E+01 0.279E+00   -.170E-03 0.966E-04 -.157E-03
   -.336E+02 -.198E+02 0.224E+02   0.358E+02 0.202E+02 -.235E+02   -.222E+01 -.396E+00 0.112E+01   0.111E-03 -.354E-04 -.221E-03
 -----------------------------------------------------------------------------------------------
   -.315E+01 -.520E+01 -.299E+01   0.142E-13 -.355E-13 0.284E-13   0.316E+01 0.521E+01 0.300E+01   -.363E-02 -.598E-02 -.348E-02
 
 
 POSITION                                       TOTAL-FORCE (eV/Angst)
 -----------------------------------------------------------------------------------
      9.49621     11.09307      7.70229         0.002712      0.007428     -0.002720
      7.41045     10.76766      8.74060        -0.006216      0.009293     -0.000995
     10.81384      9.15956      7.94699         0.009859      0.001776     -0.004837
      7.69862     10.27144     11.02208        -0.002038      0.005054      0.006182
     11.11678      8.65639     10.22498         0.007256      0.000942      0.004109
      9.02397      8.34143     11.25230         0.001369     -0.002289      0.010778
     10.61758     12.96823      8.70999        -0.000940     -0.006087      0.008387
     10.96001     12.51590     11.09518        -0.004029     -0.006583     -0.003746
     12.28373     10.46281     11.30383        -0.008501      0.005124     -0.003289
      8.76915     12.12347     12.12346         0.007381     -0.002450     -0.006972
      8.32509      7.17289     10.62190         0.007900      0.015445      0.001862
      9.21450      8.02721     12.70602        -0.000314      0.001886     -0.005368
     11.93243      7.40239     10.35645         0.002170     -0.011137     -0.001619
     13.68248     10.66911     10.65047         0.004932     -0.009705      0.001234
     12.51384     10.13519     12.80904         0.005847     -0.009133     -0.000135
     12.14633      9.36751      7.29161        -0.004823      0.000203      0.002970
     10.14471      8.00454      7.26177         0.002943      0.013414      0.011003
      9.28960     11.37639      6.24209        -0.003471     -0.002293     -0.010575
     11.68692     13.71407     11.78546        -0.005028     -0.008205     -0.004654
      8.94613     11.82101     13.64109        -0.009909     -0.001823      0.003580
      7.89271     13.40519     12.00095        -0.009290     -0.002866      0.004724
      6.35787     10.03636     11.65630        -0.010213     -0.005440      0.001280
      6.68456      9.63955      8.06845         0.012268      0.008824      0.008866
      6.57147     12.00147      8.59161         0.003694     -0.004168      0.001110
      9.76919     14.26278      8.53587        -0.000978      0.001090     -0.010645
     11.99123     13.21237      8.01754        -0.002580      0.001700     -0.010529
 -----------------------------------------------------------------------------------
    total drift:                                0.000979      0.002039      0.000486


--------------------------------------------------------------------------------------------------------



  FREE ENERGIE OF THE ION-ELECTRON SYSTEM (eV)
  ---------------------------------------------------
  free  energy   TOTEN  =      -102.36086509 eV

  energy  without entropy=     -102.36086509  energy(sigma->0) =     -102.36086509
 
 d Force = 0.2570382E-03[ 0.191E-03, 0.323E-03]  d Energy = 0.2567734E-03 0.265E-06
 d Force = 0.2658250E+00[ 0.266E+00, 0.266E+00]  d Ewald  = 0.2658249E+00 0.496E-07


--------------------------------------------------------------------------------------------------------


    POTLOK:  cpu time    1.7517: real time    1.7514


--------------------------------------------------------------------------------------------------------


 Conjugate gradient step on ions:
 trial-energy change:   -0.000257  1 .order   -0.000257   -0.000323   -0.000191
  (g-gl).g = 0.317E-03      g.g   = 0.330E-03  gl.gl    = 0.621E-03
 g(Force)  = 0.330E-03   g(Stress)= 0.000E+00 ortho     = 0.993E-05
 gamma     =   0.51040
 trial     =   0.96522
 opt step  =   2.36067  (harmonic =   2.36067) maximal distance =0.00345452
 next E    =  -102.361003   (d E  =  -0.00040)


--------------------------------------------------------------------------------------------------------


  
 reached required accuracy - stopping structural energy minimisation
 writing wavefunctions
     LOOP+:  cpu time   63.5503: real time   63.9877
    4ORBIT:  cpu time    0.0000: real time    0.0000

 total amount of memory used by VASP MPI-rank0   131440. kBytes
=======================================================================

   base      :      30000. kBytes
   nonl-proj :      17624. kBytes
   fftplans  :      26957. kBytes
   grid      :      48673. kBytes
   one-center:         40. kBytes
   wavefun   :       8146. kBytes
 
  
  
 General timing and accounting informations for this job:
 ========================================================
  
                  Total CPU time used (sec):     2434.631
                            User time (sec):     2403.385
                          System time (sec):       31.246
                         Elapsed time (sec):     2440.559
  
                   Maximum memory used (kb):      185956.
                   Average memory used (kb):           0.
  
                          Minor page faults:      5962352
                          Major page faults:           11
                 Voluntary context switches:         2617
