 vasp.5.4.4.18Apr17-6-g9f103f2a35 (build Nov 06 2017 19:16:10) complex          
  
 executed on           IFC91_ompi date 2018.07.08  00:51:03
 running on   12 total cores
 distrk:  each k-point on   12 cores,    1 groups
 distr:  one band on NCORES_PER_BAND=   6 cores,    2 groups


--------------------------------------------------------------------------------------------------------


 INCAR:
 POTCAR:    PAW_PBE Si 05Jan2001                  
 POTCAR:    PAW_PBE Ge 05Jan2001                  
 POTCAR:    PAW_PBE H 15Jun2001                   
 POTCAR:    PAW_PBE Si 05Jan2001                  
   VRHFIN =Si: s2p2                                                             
   LEXCH  = PE                                                                  
   EATOM  =   103.0669 eV,    7.5752 Ry                                         
                                                                                
   TITEL  = PAW_PBE Si 05Jan2001                                                
   LULTRA =        F    use ultrasoft PP ?                                      
   IUNSCR =        1    unscreen: 0-lin 1-nonlin 2-no                           
   RPACOR =    1.500    partial core radius                                     
   POMASS =   28.085; ZVAL   =    4.000    mass and valenz                      
   RCORE  =    1.900    outmost cutoff radius                                   
   RWIGS  =    2.480; RWIGS  =    1.312    wigner-seitz radius (au A)           
   ENMAX  =  245.345; ENMIN  =  184.009 eV                                      
   ICORE  =        2    local potential                                         
   LCOR   =        T    correct aug charges                                     
   LPAW   =        T    paw PP                                                  
   EAUG   =  322.069                                                            
   DEXC   =    0.000                                                            
   RMAX   =    1.950    core radius for proj-oper                               
   RAUG   =    1.300    factor for augmentation sphere                          
   RDEP   =    1.993    radius for radial grids                                 
   RDEPT  =    1.837    core radius for aug-charge                              
                                                                                
   Atomic configuration                                                         
    6 entries                                                                   
     n  l   j            E        occ.                                          
     1  0  0.50     -1785.8828   2.0000                                         
     2  0  0.50      -139.4969   2.0000                                         
     2  1  1.50       -95.5546   6.0000                                         
     3  0  0.50       -10.8127   2.0000                                         
     3  1  0.50        -4.0811   2.0000                                         
     3  2  1.50        -4.0817   0.0000                                         
   Description                                                                  
     l       E           TYP  RCUT    TYP  RCUT                                 
     0    -10.8127223     23  1.900                                             
     0     -7.6451159     23  1.900                                             
     1     -4.0811372     23  1.900                                             
     1      2.4879257     23  1.900                                             
     2     -4.0817478      7  1.900                                             
  local pseudopotential read in
  partial core-charges read in
  partial kinetic energy density read in
  atomic valenz-charges read in
  non local Contribution for L=           0  read in
    real space projection operators read in
  non local Contribution for L=           0  read in
    real space projection operators read in
  non local Contribution for L=           1  read in
    real space projection operators read in
  non local Contribution for L=           1  read in
    real space projection operators read in
    PAW grid and wavefunctions read in
 
   number of l-projection  operators is LMAX  =           4
   number of lm-projection operators is LMMAX =           8
 
 POTCAR:    PAW_PBE Ge 05Jan2001                  
   VRHFIN =Ge: s2p2                                                             
   LEXCH  = PE                                                                  
   EATOM  =   104.9960 eV,    7.7170 Ry                                         
                                                                                
   TITEL  = PAW_PBE Ge 05Jan2001                                                
   LULTRA =        F    use ultrasoft PP ?                                      
   IUNSCR =        1    unscreen: 0-lin 1-nonlin 2-no                           
   RPACOR =    2.170    partial core radius                                     
   POMASS =   72.610; ZVAL   =    4.000    mass and valenz                      
   RCORE  =    2.300    outmost cutoff radius                                   
   RWIGS  =    2.300; RWIGS  =    1.217    wigner-seitz radius (au A)           
   ENMAX  =  173.807; ENMIN  =  130.355 eV                                      
   ICORE  =        3    local potential                                         
   LCOR   =        T    correct aug charges                                     
   LPAW   =        T    paw PP                                                  
   EAUG   =  385.843                                                            
   DEXC   =    0.000                                                            
   RMAX   =    2.342    core radius for proj-oper                               
   RAUG   =    1.300    factor for augmentation sphere                          
   RDEP   =    2.318    radius for radial grids                                 
   RDEPT  =    2.103    core radius for aug-charge                              
                                                                                
   Atomic configuration                                                         
   10 entries                                                                   
     n  l   j            E        occ.                                          
     1  0  0.50    -10959.8463   2.0000                                         
     2  0  0.50     -1371.6056   2.0000                                         
     2  1  1.50     -1198.4791   6.0000                                         
     3  0  0.50      -168.4733   2.0000                                         
     3  1  1.50      -115.6019   6.0000                                         
     3  2  2.50       -29.3106  10.0000                                         
     4  0  0.50       -11.7309   2.0000                                         
     4  1  0.50        -3.8952   2.0000                                         
     4  2  1.50        -4.0817   0.0000                                         
     4  3  2.50        -4.0817   0.0000                                         
   Description                                                                  
     l       E           TYP  RCUT    TYP  RCUT                                 
     0    -11.7309493     23  2.300                                             
     0     -7.4578696     23  2.300                                             
     1     -3.8952261     23  2.300                                             
     1      6.1178114     23  2.300                                             
     2     -4.0817478     23  2.300                                             
     3     -1.3605826      7  2.300                                             
  local pseudopotential read in
  partial core-charges read in
  partial kinetic energy density read in
  atomic valenz-charges read in
  non local Contribution for L=           0  read in
    real space projection operators read in
  non local Contribution for L=           0  read in
    real space projection operators read in
  non local Contribution for L=           1  read in
    real space projection operators read in
  non local Contribution for L=           1  read in
    real space projection operators read in
  non local Contribution for L=           2  read in
    real space projection operators read in
    PAW grid and wavefunctions read in
 
   number of l-projection  operators is LMAX  =           5
   number of lm-projection operators is LMMAX =          13
 
 POTCAR:    PAW_PBE H 15Jun2001                   
   VRHFIN =H: ultrasoft test                                                    
   LEXCH  = PE                                                                  
   EATOM  =    12.4884 eV,    0.9179 Ry                                         
                                                                                
   TITEL  = PAW_PBE H 15Jun2001                                                 
   LULTRA =        F    use ultrasoft PP ?                                      
   IUNSCR =        0    unscreen: 0-lin 1-nonlin 2-no                           
   RPACOR =    0.000    partial core radius                                     
   POMASS =    1.000; ZVAL   =    1.000    mass and valenz                      
   RCORE  =    1.100    outmost cutoff radius                                   
   RWIGS  =    0.700; RWIGS  =    0.370    wigner-seitz radius (au A)           
   ENMAX  =  250.000; ENMIN  =  200.000 eV                                      
   RCLOC  =    0.701    cutoff for local pot                                    
   LCOR   =        T    correct aug charges                                     
   LPAW   =        T    paw PP                                                  
   EAUG   =  400.000                                                            
   RMAX   =    1.123    core radius for proj-oper                               
   RAUG   =    1.200    factor for augmentation sphere                          
   RDEP   =    1.112    radius for radial grids                                 
   RDEPT  =    0.926    core radius for aug-charge                              
                                                                                
   Atomic configuration                                                         
    2 entries                                                                   
     n  l   j            E        occ.                                          
     1  0  0.50        -6.4927   1.0000                                         
     2  1  0.50        -3.4015   0.0000                                         
   Description                                                                  
     l       E           TYP  RCUT    TYP  RCUT                                 
     0     -6.4927494     23  1.100                                             
     0      6.8029130     23  1.100                                             
     1     -4.0817478     23  1.100                                             
  local pseudopotential read in
  atomic valenz-charges read in
  non local Contribution for L=           0  read in
    real space projection operators read in
  non local Contribution for L=           0  read in
    real space projection operators read in
  non local Contribution for L=           1  read in
    real space projection operators read in
    PAW grid and wavefunctions read in
 
   number of l-projection  operators is LMAX  =           3
   number of lm-projection operators is LMMAX =           5
 

 ----------------------------------------------------------------------------- 
|                                                                             |
|  ADVICE TO THIS USER RUNNING 'VASP/VAMP'   (HEAR YOUR MASTER'S VOICE ...):  |
|                                                                             |
|      You have a (more or less) 'large supercell' and for larger cells       |
|      it might be more efficient to use real space projection opertators     |
|      So try LREAL= Auto  in the INCAR   file.                               |
|      Mind:          For very  accurate calculation you might also keep the  |
|      reciprocal projection scheme          (i.e. LREAL=.FALSE.)             |
|                                                                             |
 ----------------------------------------------------------------------------- 

  PAW_PBE Si 05Jan2001                  :
 energy of atom  1       EATOM= -103.0669
 kinetic energy error for atom=    0.0012 (will be added to EATOM!!)
  PAW_PBE Ge 05Jan2001                  :
 energy of atom  2       EATOM= -104.9960
 kinetic energy error for atom=    0.0003 (will be added to EATOM!!)
  PAW_PBE H 15Jun2001                   :
 energy of atom  3       EATOM=  -12.4884
 kinetic energy error for atom=    0.0098 (will be added to EATOM!!)
 
 
 POSCAR: SiGeH16                                 
  positions in direct lattice
  No initial velocities read in
 exchange correlation table for  LEXCH =        8
   RHO(1)=    0.500       N(1)  =     2000
   RHO(2)=  100.500       N(2)  =     4000
 


--------------------------------------------------------------------------------------------------------


 ion  position               nearest neighbor table
   1  0.475  0.556  0.385-  18 1.55   4 2.39   2 2.39   3 2.39
   2  0.369  0.539  0.436-  23 1.55  24 1.55   5 2.39   1 2.39
   3  0.542  0.457  0.396-  17 1.55  16 1.55   6 2.39   1 2.39
   4  0.531  0.648  0.437-  25 1.55  26 1.55   7 2.39   1 2.39
   5  0.385  0.515  0.552-  22 1.55  10 2.39   9 2.39   2 2.39
   6  0.557  0.433  0.512-  13 1.55   3 2.39   8 2.39   9 2.39
   7  0.547  0.624  0.554-  19 1.55   4 2.39   8 2.39  10 2.39
   8  0.613  0.525  0.565-  15 1.55  14 1.55   7 2.39   6 2.39
   9  0.451  0.416  0.564-  12 1.55  11 1.55   5 2.39   6 2.39
  10  0.440  0.606  0.605-  20 1.55  21 1.55   5 2.39   7 2.39
  11  0.415  0.357  0.529-   9 1.55
  12  0.461  0.400  0.639-   9 1.55
  13  0.600  0.369  0.520-   6 1.55
  14  0.682  0.536  0.531-   8 1.55
  15  0.623  0.509  0.640-   8 1.55
  16  0.611  0.469  0.363-   3 1.55
  17  0.506  0.398  0.362-   3 1.55
  18  0.465  0.572  0.309-   1 1.55
  19  0.583  0.683  0.588-   7 1.55
  20  0.451  0.590  0.680-  10 1.55
  21  0.397  0.670  0.598-  10 1.55
  22  0.316  0.504  0.586-   5 1.55
  23  0.333  0.479  0.402-   2 1.55
  24  0.326  0.603  0.429-   2 1.55
  25  0.488  0.712  0.430-   4 1.55
  26  0.600  0.659  0.404-   4 1.55
 
  LATTYP: Found a simple cubic cell.
 ALAT       =    20.0000000000
  
  Lattice vectors:
  
 A1 = (  20.0000000000,   0.0000000000,   0.0000000000)
 A2 = (   0.0000000000,  20.0000000000,   0.0000000000)
 A3 = (   0.0000000000,   0.0000000000,  20.0000000000)


Analysis of symmetry for initial positions (statically):
=====================================================================
 Subroutine PRICEL returns:
 Original cell was already a primitive cell.
 

 Routine SETGRP: Setting up the symmetry group for a 
 simple cubic supercell.


 Subroutine GETGRP returns: Found  1 space group operations
 (whereof  1 operations were pure point group operations)
 out of a pool of 48 trial point group operations.


The static configuration has the point symmetry C_1 .


Analysis of symmetry for dynamics (positions and initial velocities):
=====================================================================
 Subroutine PRICEL returns:
 Original cell was already a primitive cell.
 

 Routine SETGRP: Setting up the symmetry group for a 
 simple cubic supercell.


 Subroutine GETGRP returns: Found  1 space group operations
 (whereof  1 operations were pure point group operations)
 out of a pool of 48 trial point group operations.


The dynamic configuration has the point symmetry C_1 .


 Subroutine INISYM returns: Found  1 space group operations
 (whereof  1 operations are pure point group operations),
 and found     1 'primitive' translations

 
 
 KPOINTS: Automatic mesh                          

Automatic generation of k-mesh.
Space group operators:
 irot       det(A)        alpha          n_x          n_y          n_z        tau_x        tau_y        tau_z
    1     1.000000     0.000000     1.000000     0.000000     0.000000     0.000000     0.000000     0.000000
 
 Subroutine IBZKPT returns following result:
 ===========================================
 
 Found      1 irreducible k-points:
 
 Following reciprocal coordinates:
            Coordinates               Weight
  0.000000  0.000000  0.000000      1.000000
 
 Following cartesian coordinates:
            Coordinates               Weight
  0.000000  0.000000  0.000000      1.000000
 


--------------------------------------------------------------------------------------------------------




 Dimension of arrays:
   k-points           NKPTS =      1   k-points in BZ     NKDIM =      1   number of bands    NBANDS=     42
   number of dos      NEDOS =    301   number of ions     NIONS =     26
   non local maximal  LDIM  =      5   non local SUM 2l+1 LMDIM =     13
   total plane-waves  NPLWV = 941192
   max r-space proj   IRMAX =      1   max aug-charges    IRDMAX=   6593
   dimension x,y,z NGX =    98 NGY =   98 NGZ =   98
   dimension x,y,z NGXF=   196 NGYF=  196 NGZF=  196
   support grid    NGXF=   196 NGYF=  196 NGZF=  196
   ions per type =               6   4  16
   NGX,Y,Z   is equivalent  to a cutoff of   8.15,  8.15,  8.15 a.u.
   NGXF,Y,Z  is equivalent  to a cutoff of  16.29, 16.29, 16.29 a.u.

 SYSTEM =  SiGe                                    
 POSCAR =  SiGeH16                                 

 Startparameter for this run:
   NWRITE =      2    write-flag & timer
   PREC   = normal    normal or accurate (medium, high low for compatibility)
   ISTART =      0    job   : 0-new  1-cont  2-samecut
   ICHARG =      2    charge: 1-file 2-atom 10-const
   ISPIN  =      1    spin polarized calculation?
   LNONCOLLINEAR =      F non collinear calculations
   LSORBIT =      F    spin-orbit coupling
   INIWAV =      1    electr: 0-lowe 1-rand  2-diag
   LASPH  =      F    aspherical Exc in radial PAW
   METAGGA=      F    non-selfconsistent MetaGGA calc.

 Electronic Relaxation 1
   ENCUT  =  400.0 eV  29.40 Ry    5.42 a.u.  32.61 32.61 32.61*2*pi/ulx,y,z
   ENINI  =  400.0     initial cutoff
   ENAUG  =  400.0 eV  augmentation charge cutoff
   NELM   =     60;   NELMIN=  2; NELMDL= -5     # of ELM steps 
   EDIFF  = 0.1E-05   stopping-criterion for ELM
   LREAL  =      F    real-space projection
   NLSPLINE    = F    spline interpolate recip. space projectors
   LCOMPAT=      F    compatible to vasp.4.4
   GGA_COMPAT  = T    GGA compatible to vasp.4.4-vasp.4.6
   LMAXPAW     = -100 max onsite density
   LMAXMIX     =    2 max onsite mixed and CHGCAR
   VOSKOWN=      0    Vosko Wilk Nusair interpolation
   ROPT   =    0.00000   0.00000   0.00000
 Ionic relaxation
   EDIFFG = -.2E-01   stopping-criterion for IOM
   NSW    =    200    number of steps for IOM
   NBLOCK =      1;   KBLOCK =    200    inner block; outer block 
   IBRION =      2    ionic relax: 0-MD 1-quasi-New 2-CG
   NFREE  =      1    steps in history (QN), initial steepest desc. (CG)
   ISIF   =      2    stress and relaxation
   IWAVPR =     11    prediction:  0-non 1-charg 2-wave 3-comb
   ISYM   =      2    0-nonsym 1-usesym 2-fastsym
   LCORR  =      T    Harris-Foulkes like correction to forces

   POTIM  = 0.5000    time-step for ionic-motion
   TEIN   =    0.0    initial temperature
   TEBEG  =    0.0;   TEEND  =   0.0 temperature during run
   SMASS  =  -3.00    Nose mass-parameter (am)
   estimated Nose-frequenzy (Omega)   =  0.10E-29 period in steps =****** mass=  -0.914E-26a.u.
   SCALEE = 1.0000    scale energy and forces
   NPACO  =    256;   APACO  = 16.0  distance and # of slots for P.C.
   PSTRESS=    0.0 pullay stress

  Mass of Ions in am
   POMASS =  28.09 72.61  1.00
  Ionic Valenz
   ZVAL   =   4.00  4.00  1.00
  Atomic Wigner-Seitz radii
   RWIGS  =  -1.00 -1.00 -1.00
  virtual crystal weights 
   VCA    =   1.00  1.00  1.00
   NELECT =      56.0000    total number of electrons
   NUPDOWN=      -1.0000    fix difference up-down

 DOS related values:
   EMIN   =  10.00;   EMAX   =-10.00  energy-range for DOS
   EFERMI =   0.00
   ISMEAR =     0;   SIGMA  =   0.20  broadening in eV -4-tet -1-fermi 0-gaus

 Electronic relaxation 2 (details)
   IALGO  =     38    algorithm
   LDIAG  =      T    sub-space diagonalisation (order eigenvalues)
   LSUBROT=      F    optimize rotation matrix (better conditioning)
   TURBO    =      0    0=normal 1=particle mesh
   IRESTART =      0    0=no restart 2=restart with 2 vectors
   NREBOOT  =      0    no. of reboots
   NMIN     =      0    reboot dimension
   EREF     =   0.00    reference energy to select bands
   IMIX   =      4    mixing-type and parameters
     AMIX     =   0.40;   BMIX     =  1.00
     AMIX_MAG =   1.60;   BMIX_MAG =  1.00
     AMIN     =   0.10
     WC   =   100.;   INIMIX=   1;  MIXPRE=   1;  MAXMIX= -45

 Intra band minimization:
   WEIMIN = 0.0010     energy-eigenvalue tresh-hold
   EBREAK =  0.60E-08  absolut break condition
   DEPER  =   0.30     relativ break condition  

   TIME   =   0.40     timestep for ELM

  volume/ion in A,a.u.               =     307.69      2076.41
  Fermi-wavevector in a.u.,A,eV,Ry     =   0.313166  0.591797  1.334361  0.098073
  Thomas-Fermi vector in A             =   1.193276
 
 Write flags
   LWAVE        =      T    write WAVECAR
   LDOWNSAMPLE  =      F    k-point downsampling of WAVECAR
   LCHARG       =      T    write CHGCAR
   LVTOT        =      F    write LOCPOT, total local potential
   LVHAR        =      F    write LOCPOT, Hartree potential only
   LELF         =      F    write electronic localiz. function (ELF)
   LORBIT       =      0    0 simple, 1 ext, 2 COOP (PROOUT), +10 PAW based schemes


 Dipole corrections
   LMONO  =      F    monopole corrections only (constant potential shift)
   LDIPOL =      F    correct potential (dipole corrections)
   IDIPOL =      0    1-x, 2-y, 3-z, 4-all directions 
   EPSILON=  1.0000000 bulk dielectric constant

 Exchange correlation treatment:
   GGA     =    --    GGA type
   LEXCH   =     8    internal setting for exchange type
   VOSKOWN=      0    Vosko Wilk Nusair interpolation
   LHFCALC =     F    Hartree Fock is set to
   LHFONE  =     F    Hartree Fock one center treatment
   AEXX    =    0.0000 exact exchange contribution

 Linear response parameters
   LEPSILON=     F    determine dielectric tensor
   LRPA    =     F    only Hartree local field effects (RPA)
   LNABLA  =     F    use nabla operator in PAW spheres
   LVEL    =     F    velocity operator in full k-point grid
   LINTERFAST=   F  fast interpolation
   KINTER  =     0    interpolate to denser k-point grid
   CSHIFT  =0.1000    complex shift for real part using Kramers Kronig
   OMEGAMAX=  -1.0    maximum frequency
   DEG_THRESHOLD= 0.2000000E-02 threshold for treating states as degnerate
   RTIME   =   -0.100 relaxation time in fs
  (WPLASMAI=    0.000 imaginary part of plasma frequency in eV, 0.658/RTIME)
   DFIELD  = 0.0000000 0.0000000 0.0000000 field for delta impulse in time
 
 Orbital magnetization related:
   ORBITALMAG=     F  switch on orbital magnetization
   LCHIMAG   =     F  perturbation theory with respect to B field
   DQ        =  0.001000  dq finite difference perturbation B field
   LLRAUG    =     F  two centre corrections for induced B field



--------------------------------------------------------------------------------------------------------


 conjugate gradient relaxation of ions
 charge density and potential will be updated during run
 non-spin polarized calculation
 Variant of blocked Davidson
 Davidson routine will perform the subspace rotation
 perform sub-space diagonalisation
    after iterative eigenvector-optimisation
 modified Broyden-mixing scheme, WC =      100.0
 initial mixing is a Kerker type mixing with AMIX =  0.4000 and BMIX =      1.0000
 Hartree-type preconditioning will be used
 using additional bands           14
 reciprocal scheme for non local part
 use partial core corrections
 calculate Harris-corrections to forces 
   (improved forces if not selfconsistent)
 use gradient corrections 
 use of overlap-Matrix (Vanderbilt PP)
 Gauss-broadening in eV      SIGMA  =   0.20


--------------------------------------------------------------------------------------------------------


  energy-cutoff  :      400.00
  volume of cell :     8000.00
      direct lattice vectors                 reciprocal lattice vectors
    20.000000000  0.000000000  0.000000000     0.050000000  0.000000000  0.000000000
     0.000000000 20.000000000  0.000000000     0.000000000  0.050000000  0.000000000
     0.000000000  0.000000000 20.000000000     0.000000000  0.000000000  0.050000000

  length of vectors
    20.000000000 20.000000000 20.000000000     0.050000000  0.050000000  0.050000000


 
 k-points in units of 2pi/SCALE and weight: Automatic mesh                          
   0.00000000  0.00000000  0.00000000       1.000
 
 k-points in reciprocal lattice and weights: Automatic mesh                          
   0.00000000  0.00000000  0.00000000       1.000
 
 position of ions in fractional coordinates (direct lattice) 
   0.47547100  0.55626000  0.38465300
   0.36907800  0.53906000  0.43641200
   0.54179100  0.45744600  0.39613600
   0.53111600  0.64794100  0.43749600
   0.38461900  0.51474100  0.55243500
   0.55736800  0.43311000  0.51215000
   0.54669200  0.62364400  0.55351800
   0.61299700  0.52481700  0.56496600
   0.45095700  0.41593600  0.56388300
   0.44028400  0.60643000  0.60524300
   0.41490100  0.35665000  0.52940300
   0.46117000  0.40042600  0.63910800
   0.60034800  0.36907000  0.51957800
   0.68182700  0.53600700  0.53118700
   0.62280400  0.50903400  0.64018900
   0.61080000  0.46880600  0.36278200
   0.50550800  0.39805500  0.36207700
   0.46538400  0.57201900  0.30946400
   0.58275500  0.68306700  0.58775000
   0.45052500  0.59044300  0.68036400
   0.39732000  0.67044900  0.59753500
   0.31566200  0.50359800  0.58596500
   0.33322800  0.47946500  0.40225200
   0.32629100  0.60324700  0.42912600
   0.48792300  0.71185500  0.43020800
   0.60015100  0.65882400  0.40403700
 
 position of ions in cartesian coordinates  (Angst):
   9.50942000 11.12520000  7.69306000
   7.38156000 10.78120000  8.72824000
  10.83582000  9.14892000  7.92272000
  10.62232000 12.95882000  8.74992000
   7.69238000 10.29482000 11.04870000
  11.14736000  8.66220000 10.24300000
  10.93384000 12.47288000 11.07036000
  12.25994000 10.49634000 11.29932000
   9.01914000  8.31872000 11.27766000
   8.80568000 12.12860000 12.10486000
   8.29802000  7.13300000 10.58806000
   9.22340000  8.00852000 12.78216000
  12.00696000  7.38140000 10.39156000
  13.63654000 10.72014000 10.62374000
  12.45608000 10.18068000 12.80378000
  12.21600000  9.37612000  7.25564000
  10.11016000  7.96110000  7.24154000
   9.30768000 11.44038000  6.18928000
  11.65510000 13.66134000 11.75500000
   9.01050000 11.80886000 13.60728000
   7.94640000 13.40898000 11.95070000
   6.31324000 10.07196000 11.71930000
   6.66456000  9.58930000  8.04504000
   6.52582000 12.06494000  8.58252000
   9.75846000 14.23710000  8.60416000
  12.00302000 13.17648000  8.08074000
 


--------------------------------------------------------------------------------------------------------


 k-point  1 :   0.0000 0.0000 0.0000  plane waves:  145165

 maximum and minimum number of plane-waves per node :     24209    24180

 maximum number of plane-waves:    145165
 maximum index in each direction: 
   IXMAX=   32   IYMAX=   32   IZMAX=   32
   IXMIN=  -32   IYMIN=  -32   IZMIN=  -32


 parallel 3D FFT for wavefunctions:
    minimum data exchange during FFTs selected (reduces bandwidth)
 parallel 3D FFT for charge:
    minimum data exchange during FFTs selected (reduces bandwidth)


 total amount of memory used by VASP MPI-rank0   131440. kBytes
=======================================================================

   base      :      30000. kBytes
   nonl-proj :      17624. kBytes
   fftplans  :      26957. kBytes
   grid      :      48673. kBytes
   one-center:         40. kBytes
   wavefun   :       8146. kBytes
 
     INWAV:  cpu time    0.0000: real time    0.0000
 Broyden mixing: mesh for mixing (old mesh)
   NGX = 65   NGY = 65   NGZ = 65
  (NGX  =196   NGY  =196   NGZ  =196)
  gives a total of 274625 points

 initial charge density was supplied:
 charge density of overlapping atoms calculated
 number of electron      56.0000000 magnetization 
 keeping initial charge density in first step


--------------------------------------------------------------------------------------------------------


 Maximum index for augmentation-charges          558 (set IRDMAX)


--------------------------------------------------------------------------------------------------------


 First call to EWALD:  gamma=   0.089
 Maximum number of real-space cells 3x 3x 3
 Maximum number of reciprocal cells 3x 3x 3

    FEWALD:  cpu time    0.0020: real time    0.0028


--------------------------------------- Iteration      1(   1)  ---------------------------------------


    POTLOK:  cpu time    1.7687: real time    1.7706
    SETDIJ:  cpu time    0.0070: real time    0.0077
     EDDAV:  cpu time   11.0423: real time   11.0374
       DOS:  cpu time    0.0000: real time    0.0003
    --------------------------------------------
      LOOP:  cpu time   12.8181: real time   12.8161

 eigenvalue-minimisations  :   116
 total energy-change (2. order) : 0.2012273E+03  (-0.1048828E+04)
 number of electron      56.0000000 magnetization 
 augmentation part       56.0000000 magnetization 

 Free energy of the ion-electron system (eV)
  ---------------------------------------------------
  alpha Z        PSCENC =         1.96423985
  Ewald energy   TEWEN  =      2629.98113996
  -Hartree energ DENC   =     -3442.44050285
  -exchange      EXHF   =         0.00000000
  -V(xc)+E(xc)   XCENC  =       -53.18905845
  PAW double counting   =       915.46801746     -752.10009045
  entropy T*S    EENTRO =        -0.42281062
  eigenvalues    EBANDS =      -336.06892086
  atomic energy  EATOM  =      1238.03527989
  Solvation  Ediel_sol  =         0.00000000
  ---------------------------------------------------
  free energy    TOTEN  =       201.22729393 eV

  energy without entropy =      201.65010455  energy(sigma->0) =      201.43869924


--------------------------------------------------------------------------------------------------------




--------------------------------------- Iteration      1(   2)  ---------------------------------------


     EDDAV:  cpu time   13.1750: real time   13.1724
       DOS:  cpu time    0.0010: real time    0.0002
    --------------------------------------------
      LOOP:  cpu time   13.1760: real time   13.1726

 eigenvalue-minimisations  :   144
 total energy-change (2. order) :-0.2305324E+03  (-0.2158564E+03)
 number of electron      56.0000000 magnetization 
 augmentation part       56.0000000 magnetization 

 Free energy of the ion-electron system (eV)
  ---------------------------------------------------
  alpha Z        PSCENC =         1.96423985
  Ewald energy   TEWEN  =      2629.98113996
  -Hartree energ DENC   =     -3442.44050285
  -exchange      EXHF   =         0.00000000
  -V(xc)+E(xc)   XCENC  =       -53.18905845
  PAW double counting   =       915.46801746     -752.10009045
  entropy T*S    EENTRO =        -0.00000000
  eigenvalues    EBANDS =      -567.02417701
  atomic energy  EATOM  =      1238.03527989
  Solvation  Ediel_sol  =         0.00000000
  ---------------------------------------------------
  free energy    TOTEN  =       -29.30515160 eV

  energy without entropy =      -29.30515160  energy(sigma->0) =      -29.30515160


--------------------------------------------------------------------------------------------------------




--------------------------------------- Iteration      1(   3)  ---------------------------------------


     EDDAV:  cpu time   10.8014: real time   10.9956
       DOS:  cpu time    0.0000: real time    0.0003
    --------------------------------------------
      LOOP:  cpu time   10.8014: real time   10.9959

 eigenvalue-minimisations  :   112
 total energy-change (2. order) :-0.7354843E+02  (-0.7337793E+02)
 number of electron      56.0000000 magnetization 
 augmentation part       56.0000000 magnetization 

 Free energy of the ion-electron system (eV)
  ---------------------------------------------------
  alpha Z        PSCENC =         1.96423985
  Ewald energy   TEWEN  =      2629.98113996
  -Hartree energ DENC   =     -3442.44050285
  -exchange      EXHF   =         0.00000000
  -V(xc)+E(xc)   XCENC  =       -53.18905845
  PAW double counting   =       915.46801746     -752.10009045
  entropy T*S    EENTRO =        -0.00000000
  eigenvalues    EBANDS =      -640.57261063
  atomic energy  EATOM  =      1238.03527989
  Solvation  Ediel_sol  =         0.00000000
  ---------------------------------------------------
  free energy    TOTEN  =      -102.85358522 eV

  energy without entropy =     -102.85358522  energy(sigma->0) =     -102.85358522


--------------------------------------------------------------------------------------------------------




--------------------------------------- Iteration      1(   4)  ---------------------------------------


     EDDAV:  cpu time   10.1165: real time   10.1130
       DOS:  cpu time    0.0010: real time    0.0003
    --------------------------------------------
      LOOP:  cpu time   10.1175: real time   10.1133

 eigenvalue-minimisations  :   104
 total energy-change (2. order) :-0.4121624E+01  (-0.4105744E+01)
 number of electron      56.0000000 magnetization 
 augmentation part       56.0000000 magnetization 

 Free energy of the ion-electron system (eV)
  ---------------------------------------------------
  alpha Z        PSCENC =         1.96423985
  Ewald energy   TEWEN  =      2629.98113996
  -Hartree energ DENC   =     -3442.44050285
  -exchange      EXHF   =         0.00000000
  -V(xc)+E(xc)   XCENC  =       -53.18905845
  PAW double counting   =       915.46801746     -752.10009045
  entropy T*S    EENTRO =        -0.00000000
  eigenvalues    EBANDS =      -644.69423484
  atomic energy  EATOM  =      1238.03527989
  Solvation  Ediel_sol  =         0.00000000
  ---------------------------------------------------
  free energy    TOTEN  =      -106.97520943 eV

  energy without entropy =     -106.97520943  energy(sigma->0) =     -106.97520943


--------------------------------------------------------------------------------------------------------




--------------------------------------- Iteration      1(   5)  ---------------------------------------


     EDDAV:  cpu time   12.5821: real time   12.5782
       DOS:  cpu time    0.0000: real time    0.0003
    CHARGE:  cpu time    0.4879: real time    0.4876
    MIXING:  cpu time    0.0430: real time    0.0437
    --------------------------------------------
      LOOP:  cpu time   13.1140: real time   13.1098

 eigenvalue-minimisations  :   136
 total energy-change (2. order) :-0.7852225E-01  (-0.7844749E-01)
 number of electron      56.0000026 magnetization 
 augmentation part       -3.5396396 magnetization 

 Broyden mixing:
  rms(total) = 0.15020E+01    rms(broyden)= 0.15019E+01
  rms(prec ) = 0.15981E+01
  weight for this iteration     100.00

 Free energy of the ion-electron system (eV)
  ---------------------------------------------------
  alpha Z        PSCENC =         1.96423985
  Ewald energy   TEWEN  =      2629.98113996
  -Hartree energ DENC   =     -3442.44050285
  -exchange      EXHF   =         0.00000000
  -V(xc)+E(xc)   XCENC  =       -53.18905845
  PAW double counting   =       915.46801746     -752.10009045
  entropy T*S    EENTRO =        -0.00000000
  eigenvalues    EBANDS =      -644.77275709
  atomic energy  EATOM  =      1238.03527989
  Solvation  Ediel_sol  =         0.00000000
  ---------------------------------------------------
  free energy    TOTEN  =      -107.05373168 eV

  energy without entropy =     -107.05373168  energy(sigma->0) =     -107.05373168


--------------------------------------------------------------------------------------------------------




--------------------------------------- Iteration      1(   6)  ---------------------------------------


    POTLOK:  cpu time    1.7237: real time    1.7263
    SETDIJ:  cpu time    0.0080: real time    0.0083
     EDDAV:  cpu time    9.5885: real time    9.5844
       DOS:  cpu time    0.0000: real time    0.0003
    CHARGE:  cpu time    0.4859: real time    0.4866
    MIXING:  cpu time    0.0470: real time    0.0463
    --------------------------------------------
      LOOP:  cpu time   11.8522: real time   11.8522

 eigenvalue-minimisations  :    96
 total energy-change (2. order) : 0.3218133E+01  (-0.1570903E+00)
 number of electron      56.0000025 magnetization 
 augmentation part       -3.5401703 magnetization 

 Broyden mixing:
  rms(total) = 0.87272E+00    rms(broyden)= 0.87271E+00
  rms(prec ) = 0.93128E+00
  weight for this iteration     100.00

 eigenvalues of (default mixing * dielectric matrix)
  average eigenvalue GAMMA=   2.3156
  2.3156

 Free energy of the ion-electron system (eV)
  ---------------------------------------------------
  alpha Z        PSCENC =         1.96423985
  Ewald energy   TEWEN  =      2629.98113996
  -Hartree energ DENC   =     -3473.86560836
  -exchange      EXHF   =         0.00000000
  -V(xc)+E(xc)   XCENC  =       -49.55651558
  PAW double counting   =      1841.99561644    -1679.40337781
  entropy T*S    EENTRO =        -0.00000000
  eigenvalues    EBANDS =      -612.98637261
  atomic energy  EATOM  =      1238.03527989
  Solvation  Ediel_sol  =         0.00000000
  ---------------------------------------------------
  free energy    TOTEN  =      -103.83559823 eV

  energy without entropy =     -103.83559823  energy(sigma->0) =     -103.83559823


--------------------------------------------------------------------------------------------------------




--------------------------------------- Iteration      1(   7)  ---------------------------------------


    POTLOK:  cpu time    1.7037: real time    1.7033
    SETDIJ:  cpu time    0.0090: real time    0.0086
     EDDAV:  cpu time   10.7964: real time   10.7934
       DOS:  cpu time    0.0000: real time    0.0003
    CHARGE:  cpu time    0.4849: real time    0.4845
    MIXING:  cpu time    0.0490: real time    0.0495
    --------------------------------------------
      LOOP:  cpu time   13.0430: real time   13.0396

 eigenvalue-minimisations  :   112
 total energy-change (2. order) : 0.1691592E+01  (-0.4133563E+00)
 number of electron      56.0000024 magnetization 
 augmentation part       -3.5402462 magnetization 

 Broyden mixing:
  rms(total) = 0.12338E+00    rms(broyden)= 0.12323E+00
  rms(prec ) = 0.15441E+00
  weight for this iteration     100.00

 eigenvalues of (default mixing * dielectric matrix)
  average eigenvalue GAMMA=   1.8325
  1.6782  1.9868

 Free energy of the ion-electron system (eV)
  ---------------------------------------------------
  alpha Z        PSCENC =         1.96423985
  Ewald energy   TEWEN  =      2629.98113996
  -Hartree energ DENC   =     -3530.03659731
  -exchange      EXHF   =         0.00000000
  -V(xc)+E(xc)   XCENC  =       -43.76410056
  PAW double counting   =      3902.51649737    -3740.96654612
  entropy T*S    EENTRO =        -0.00000000
  eigenvalues    EBANDS =      -559.87391921
  atomic energy  EATOM  =      1238.03527989
  Solvation  Ediel_sol  =         0.00000000
  ---------------------------------------------------
  free energy    TOTEN  =      -102.14400614 eV

  energy without entropy =     -102.14400614  energy(sigma->0) =     -102.14400614


--------------------------------------------------------------------------------------------------------




--------------------------------------- Iteration      1(   8)  ---------------------------------------


    POTLOK:  cpu time    1.7077: real time    1.7071
    SETDIJ:  cpu time    0.0080: real time    0.0076
     EDDAV:  cpu time   10.1595: real time   10.1563
       DOS:  cpu time    0.0010: real time    0.0003
    CHARGE:  cpu time    0.4889: real time    0.4891
    MIXING:  cpu time    0.0500: real time    0.0508
    --------------------------------------------
      LOOP:  cpu time   12.4151: real time   12.4111

 eigenvalue-minimisations  :   104
 total energy-change (2. order) : 0.5131606E-01  (-0.2694504E-01)
 number of electron      56.0000023 magnetization 
 augmentation part       -3.5371683 magnetization 

 Broyden mixing:
  rms(total) = 0.62254E-01    rms(broyden)= 0.62240E-01
  rms(prec ) = 0.81631E-01
  weight for this iteration     100.00

 eigenvalues of (default mixing * dielectric matrix)
  average eigenvalue GAMMA=   1.9710
  2.6274  1.6427  1.6427

 Free energy of the ion-electron system (eV)
  ---------------------------------------------------
  alpha Z        PSCENC =         1.96423985
  Ewald energy   TEWEN  =      2629.98113996
  -Hartree energ DENC   =     -3537.61158168
  -exchange      EXHF   =         0.00000000
  -V(xc)+E(xc)   XCENC  =       -43.82951857
  PAW double counting   =      3910.53377095    -3748.89227544
  entropy T*S    EENTRO =        -0.00000000
  eigenvalues    EBANDS =      -552.27374503
  atomic energy  EATOM  =      1238.03527989
  Solvation  Ediel_sol  =         0.00000000
  ---------------------------------------------------
  free energy    TOTEN  =      -102.09269007 eV

  energy without entropy =     -102.09269007  energy(sigma->0) =     -102.09269007


--------------------------------------------------------------------------------------------------------




--------------------------------------- Iteration      1(   9)  ---------------------------------------


    POTLOK:  cpu time    1.7177: real time    1.7163
    SETDIJ:  cpu time    0.0080: real time    0.0083
     EDDAV:  cpu time   11.3513: real time   11.3703
       DOS:  cpu time    0.0010: real time    0.0003
    CHARGE:  cpu time    0.4909: real time    0.4909
    MIXING:  cpu time    0.0520: real time    0.0525
    --------------------------------------------
      LOOP:  cpu time   13.6209: real time   13.6387

 eigenvalue-minimisations  :   120
 total energy-change (2. order) : 0.3554765E-01  (-0.7660180E-02)
 number of electron      56.0000024 magnetization 
 augmentation part       -3.5246048 magnetization 

 Broyden mixing:
  rms(total) = 0.33807E-01    rms(broyden)= 0.33806E-01
  rms(prec ) = 0.45469E-01
  weight for this iteration     100.00

 eigenvalues of (default mixing * dielectric matrix)
  average eigenvalue GAMMA=   1.7388
  2.4955  1.8246  1.8246  0.8102

 Free energy of the ion-electron system (eV)
  ---------------------------------------------------
  alpha Z        PSCENC =         1.96423985
  Ewald energy   TEWEN  =      2629.98113996
  -Hartree energ DENC   =     -3549.37006651
  -exchange      EXHF   =         0.00000000
  -V(xc)+E(xc)   XCENC  =       -43.14354249
  PAW double counting   =      4042.70113332    -3881.09215911
  entropy T*S    EENTRO =        -0.00000000
  eigenvalues    EBANDS =      -541.13316734
  atomic energy  EATOM  =      1238.03527989
  Solvation  Ediel_sol  =         0.00000000
  ---------------------------------------------------
  free energy    TOTEN  =      -102.05714243 eV

  energy without entropy =     -102.05714243  energy(sigma->0) =     -102.05714243


--------------------------------------------------------------------------------------------------------




--------------------------------------- Iteration      1(  10)  ---------------------------------------


    POTLOK:  cpu time    1.7217: real time    1.7215
    SETDIJ:  cpu time    0.0070: real time    0.0076
     EDDAV:  cpu time   10.7474: real time   10.7490
       DOS:  cpu time    0.0010: real time    0.0004
    CHARGE:  cpu time    0.4939: real time    0.4947
    MIXING:  cpu time    0.0550: real time    0.0548
    --------------------------------------------
      LOOP:  cpu time   13.0260: real time   13.0279

 eigenvalue-minimisations  :   112
 total energy-change (2. order) : 0.6030181E-05  (-0.2928235E-03)
 number of electron      56.0000024 magnetization 
 augmentation part       -3.5238509 magnetization 

 Broyden mixing:
  rms(total) = 0.16013E-01    rms(broyden)= 0.16012E-01
  rms(prec ) = 0.29189E-01
  weight for this iteration     100.00

 eigenvalues of (default mixing * dielectric matrix)
  average eigenvalue GAMMA=   1.8483
  2.6576  2.2044  1.0848  1.6474  1.6474

 Free energy of the ion-electron system (eV)
  ---------------------------------------------------
  alpha Z        PSCENC =         1.96423985
  Ewald energy   TEWEN  =      2629.98113996
  -Hartree energ DENC   =     -3551.48868027
  -exchange      EXHF   =         0.00000000
  -V(xc)+E(xc)   XCENC  =       -43.14418700
  PAW double counting   =      3965.13947222    -3803.48302405
  entropy T*S    EENTRO =        -0.00000000
  eigenvalues    EBANDS =      -539.06137699
  atomic energy  EATOM  =      1238.03527989
  Solvation  Ediel_sol  =         0.00000000
  ---------------------------------------------------
  free energy    TOTEN  =      -102.05713640 eV

  energy without entropy =     -102.05713640  energy(sigma->0) =     -102.05713640


--------------------------------------------------------------------------------------------------------




--------------------------------------- Iteration      1(  11)  ---------------------------------------


    POTLOK:  cpu time    1.7427: real time    1.7473
    SETDIJ:  cpu time    0.0080: real time    0.0078
     EDDAV:  cpu time   10.1215: real time   10.1180
       DOS:  cpu time    0.0000: real time    0.0003
    CHARGE:  cpu time    0.4899: real time    0.4892
    MIXING:  cpu time    0.0570: real time    0.0575
    --------------------------------------------
      LOOP:  cpu time   12.4191: real time   12.4200

 eigenvalue-minimisations  :   104
 total energy-change (2. order) : 0.3065653E-03  (-0.6397935E-03)
 number of electron      56.0000024 magnetization 
 augmentation part       -3.5228890 magnetization 

 Broyden mixing:
  rms(total) = 0.79360E-02    rms(broyden)= 0.79357E-02
  rms(prec ) = 0.14698E-01
  weight for this iteration     100.00

 eigenvalues of (default mixing * dielectric matrix)
  average eigenvalue GAMMA=   1.8599
  3.2081  2.5658  1.7315  1.7315  1.0426  0.8801

 Free energy of the ion-electron system (eV)
  ---------------------------------------------------
  alpha Z        PSCENC =         1.96423985
  Ewald energy   TEWEN  =      2629.98113996
  -Hartree energ DENC   =     -3558.25891128
  -exchange      EXHF   =         0.00000000
  -V(xc)+E(xc)   XCENC  =       -42.95180491
  PAW double counting   =      3920.96452703    -3759.26482487
  entropy T*S    EENTRO =        -0.00000000
  eigenvalues    EBANDS =      -532.52647550
  atomic energy  EATOM  =      1238.03527989
  Solvation  Ediel_sol  =         0.00000000
  ---------------------------------------------------
  free energy    TOTEN  =      -102.05682983 eV

  energy without entropy =     -102.05682983  energy(sigma->0) =     -102.05682983


--------------------------------------------------------------------------------------------------------




--------------------------------------- Iteration      1(  12)  ---------------------------------------


    POTLOK:  cpu time    1.7347: real time    1.7343
    SETDIJ:  cpu time    0.0090: real time    0.0083
     EDDAV:  cpu time   10.1795: real time   10.1768
       DOS:  cpu time    0.0010: real time    0.0002
    CHARGE:  cpu time    0.4869: real time    0.4872
    MIXING:  cpu time    0.0610: real time    0.0608
    --------------------------------------------
      LOOP:  cpu time   12.4721: real time   12.4677

 eigenvalue-minimisations  :   104
 total energy-change (2. order) :-0.3764496E-02  (-0.1086198E-03)
 number of electron      56.0000024 magnetization 
 augmentation part       -3.5223786 magnetization 

 Broyden mixing:
  rms(total) = 0.59815E-02    rms(broyden)= 0.59815E-02
  rms(prec ) = 0.10330E-01
  weight for this iteration     100.00

 eigenvalues of (default mixing * dielectric matrix)
  average eigenvalue GAMMA=   2.0759
  4.5034  2.4757  2.4757  1.5732  1.5732  0.9650  0.9650

 Free energy of the ion-electron system (eV)
  ---------------------------------------------------
  alpha Z        PSCENC =         1.96423985
  Ewald energy   TEWEN  =      2629.98113996
  -Hartree energ DENC   =     -3560.60926587
  -exchange      EXHF   =         0.00000000
  -V(xc)+E(xc)   XCENC  =       -42.90780183
  PAW double counting   =      3913.11903573    -3751.41548893
  entropy T*S    EENTRO =        -0.00000000
  eigenvalues    EBANDS =      -530.22773312
  atomic energy  EATOM  =      1238.03527989
  Solvation  Ediel_sol  =         0.00000000
  ---------------------------------------------------
  free energy    TOTEN  =      -102.06059433 eV

  energy without entropy =     -102.06059433  energy(sigma->0) =     -102.06059433


--------------------------------------------------------------------------------------------------------




--------------------------------------- Iteration      1(  13)  ---------------------------------------


    POTLOK:  cpu time    1.7337: real time    1.7330
    SETDIJ:  cpu time    0.0080: real time    0.0083
     EDDAV:  cpu time   10.1515: real time   10.1477
       DOS:  cpu time    0.0000: real time    0.0003
    CHARGE:  cpu time    0.4899: real time    0.4905
    MIXING:  cpu time    0.0680: real time    0.0673
    --------------------------------------------
      LOOP:  cpu time   12.4511: real time   12.4470

 eigenvalue-minimisations  :   104
 total energy-change (2. order) :-0.5181111E-02  (-0.2064662E-03)
 number of electron      56.0000024 magnetization 
 augmentation part       -3.5221480 magnetization 

 Broyden mixing:
  rms(total) = 0.35462E-02    rms(broyden)= 0.35461E-02
  rms(prec ) = 0.52429E-02
  weight for this iteration     100.00

 eigenvalues of (default mixing * dielectric matrix)
  average eigenvalue GAMMA=   2.1893
  5.6670  2.8979  2.3364  1.7850  1.7850  1.1237  0.9598  0.9598

 Free energy of the ion-electron system (eV)
  ---------------------------------------------------
  alpha Z        PSCENC =         1.96423985
  Ewald energy   TEWEN  =      2629.98113996
  -Hartree energ DENC   =     -3563.62519960
  -exchange      EXHF   =         0.00000000
  -V(xc)+E(xc)   XCENC  =       -42.85214533
  PAW double counting   =      3919.48876383    -3757.79419070
  entropy T*S    EENTRO =        -0.00000000
  eigenvalues    EBANDS =      -527.26366334
  atomic energy  EATOM  =      1238.03527989
  Solvation  Ediel_sol  =         0.00000000
  ---------------------------------------------------
  free energy    TOTEN  =      -102.06577544 eV

  energy without entropy =     -102.06577544  energy(sigma->0) =     -102.06577544


--------------------------------------------------------------------------------------------------------




--------------------------------------- Iteration      1(  14)  ---------------------------------------


    POTLOK:  cpu time    1.7367: real time    1.7362
    SETDIJ:  cpu time    0.0080: real time    0.0079
     EDDAV:  cpu time   10.7514: real time   10.7482
       DOS:  cpu time    0.0000: real time    0.0003
    CHARGE:  cpu time    0.4879: real time    0.4875
    MIXING:  cpu time    0.0710: real time    0.0710
    --------------------------------------------
      LOOP:  cpu time   13.0550: real time   13.0512

 eigenvalue-minimisations  :   112
 total energy-change (2. order) :-0.3855873E-02  (-0.3000489E-04)
 number of electron      56.0000024 magnetization 
 augmentation part       -3.5217157 magnetization 

 Broyden mixing:
  rms(total) = 0.16247E-02    rms(broyden)= 0.16246E-02
  rms(prec ) = 0.28106E-02
  weight for this iteration     100.00

 eigenvalues of (default mixing * dielectric matrix)
  average eigenvalue GAMMA=   2.2810
  6.4624  2.8031  2.8031  2.2264  1.6280  1.6280  1.0523  0.9631  0.9631

 Free energy of the ion-electron system (eV)
  ---------------------------------------------------
  alpha Z        PSCENC =         1.96423985
  Ewald energy   TEWEN  =      2629.98113996
  -Hartree energ DENC   =     -3564.29251932
  -exchange      EXHF   =         0.00000000
  -V(xc)+E(xc)   XCENC  =       -42.86573698
  PAW double counting   =      3917.35488837    -3755.66085035
  entropy T*S    EENTRO =        -0.00000000
  eigenvalues    EBANDS =      -526.58607272
  atomic energy  EATOM  =      1238.03527989
  Solvation  Ediel_sol  =         0.00000000
  ---------------------------------------------------
  free energy    TOTEN  =      -102.06963131 eV

  energy without entropy =     -102.06963131  energy(sigma->0) =     -102.06963131


--------------------------------------------------------------------------------------------------------




--------------------------------------- Iteration      1(  15)  ---------------------------------------


    POTLOK:  cpu time    1.7237: real time    1.7234
    SETDIJ:  cpu time    0.0090: real time    0.0087
     EDDAV:  cpu time   10.7644: real time   10.7602
       DOS:  cpu time    0.0000: real time    0.0003
    CHARGE:  cpu time    0.4849: real time    0.4847
    MIXING:  cpu time    0.0790: real time    0.0786
    --------------------------------------------
      LOOP:  cpu time   13.0610: real time   13.0559

 eigenvalue-minimisations  :   112
 total energy-change (2. order) :-0.4620504E-02  (-0.5795097E-04)
 number of electron      56.0000024 magnetization 
 augmentation part       -3.5214650 magnetization 

 Broyden mixing:
  rms(total) = 0.16231E-02    rms(broyden)= 0.16231E-02
  rms(prec ) = 0.20508E-02
  weight for this iteration     100.00

 eigenvalues of (default mixing * dielectric matrix)
  average eigenvalue GAMMA=   2.2988
  6.7580  3.7739  2.6023  2.0263  1.8644  1.8644  1.2217  0.9728  0.9728  0.9317

 Free energy of the ion-electron system (eV)
  ---------------------------------------------------
  alpha Z        PSCENC =         1.96423985
  Ewald energy   TEWEN  =      2629.98113996
  -Hartree energ DENC   =     -3564.52824913
  -exchange      EXHF   =         0.00000000
  -V(xc)+E(xc)   XCENC  =       -42.87575094
  PAW double counting   =      3921.27194905    -3759.57736139
  entropy T*S    EENTRO =        -0.00000000
  eigenvalues    EBANDS =      -526.34549910
  atomic energy  EATOM  =      1238.03527989
  Solvation  Ediel_sol  =         0.00000000
  ---------------------------------------------------
  free energy    TOTEN  =      -102.07425181 eV

  energy without entropy =     -102.07425181  energy(sigma->0) =     -102.07425181


--------------------------------------------------------------------------------------------------------




--------------------------------------- Iteration      1(  16)  ---------------------------------------


    POTLOK:  cpu time    1.7177: real time    1.7292
    SETDIJ:  cpu time    0.0080: real time    0.0079
     EDDAV:  cpu time   10.7194: real time   10.7413
       DOS:  cpu time    0.0010: real time    0.0004
    CHARGE:  cpu time    0.4839: real time    0.4845
    MIXING:  cpu time    0.0860: real time    0.0862
    --------------------------------------------
      LOOP:  cpu time   13.0160: real time   13.0495

 eigenvalue-minimisations  :   112
 total energy-change (2. order) :-0.9521745E-03  (-0.4777058E-05)
 number of electron      56.0000024 magnetization 
 augmentation part       -3.5216266 magnetization 

 Broyden mixing:
  rms(total) = 0.70539E-03    rms(broyden)= 0.70537E-03
  rms(prec ) = 0.10315E-02
  weight for this iteration     100.00

 eigenvalues of (default mixing * dielectric matrix)
  average eigenvalue GAMMA=   2.4087
  7.3707  4.5970  2.6312  2.6312  1.8091  1.8091  1.3747  1.3747  0.9599  0.9599
  0.9786

 Free energy of the ion-electron system (eV)
  ---------------------------------------------------
  alpha Z        PSCENC =         1.96423985
  Ewald energy   TEWEN  =      2629.98113996
  -Hartree energ DENC   =     -3564.63994463
  -exchange      EXHF   =         0.00000000
  -V(xc)+E(xc)   XCENC  =       -42.87351301
  PAW double counting   =      3921.53656855    -3759.84135639
  entropy T*S    EENTRO =        -0.00000000
  eigenvalues    EBANDS =      -526.23761821
  atomic energy  EATOM  =      1238.03527989
  Solvation  Ediel_sol  =         0.00000000
  ---------------------------------------------------
  free energy    TOTEN  =      -102.07520399 eV

  energy without entropy =     -102.07520399  energy(sigma->0) =     -102.07520399


--------------------------------------------------------------------------------------------------------




--------------------------------------- Iteration      1(  17)  ---------------------------------------


    POTLOK:  cpu time    1.7147: real time    1.7196
    SETDIJ:  cpu time    0.0080: real time    0.0077
     EDDAV:  cpu time   10.1395: real time   10.1596
       DOS:  cpu time    0.0000: real time    0.0003
    CHARGE:  cpu time    0.4919: real time    0.4936
    MIXING:  cpu time    0.0950: real time    0.0950
    --------------------------------------------
      LOOP:  cpu time   12.4491: real time   12.4758

 eigenvalue-minimisations  :   104
 total energy-change (2. order) :-0.1087839E-02  (-0.9580282E-05)
 number of electron      56.0000024 magnetization 
 augmentation part       -3.5218295 magnetization 

 Broyden mixing:
  rms(total) = 0.32790E-03    rms(broyden)= 0.32785E-03
  rms(prec ) = 0.46822E-03
  weight for this iteration     100.00

 eigenvalues of (default mixing * dielectric matrix)
  average eigenvalue GAMMA=   2.3924
  7.6034  4.9827  2.6795  2.6795  1.9396  1.9396  1.4827  1.4827  1.0276  0.9768
  0.9768  0.9380

 Free energy of the ion-electron system (eV)
  ---------------------------------------------------
  alpha Z        PSCENC =         1.96423985
  Ewald energy   TEWEN  =      2629.98113996
  -Hartree energ DENC   =     -3564.66218389
  -exchange      EXHF   =         0.00000000
  -V(xc)+E(xc)   XCENC  =       -42.87529484
  PAW double counting   =      3919.91337075    -3758.21690273
  entropy T*S    EENTRO =        -0.00000000
  eigenvalues    EBANDS =      -526.21594082
  atomic energy  EATOM  =      1238.03527989
  Solvation  Ediel_sol  =         0.00000000
  ---------------------------------------------------
  free energy    TOTEN  =      -102.07629183 eV

  energy without entropy =     -102.07629183  energy(sigma->0) =     -102.07629183


--------------------------------------------------------------------------------------------------------




--------------------------------------- Iteration      1(  18)  ---------------------------------------


    POTLOK:  cpu time    1.7187: real time    1.7219
    SETDIJ:  cpu time    0.0080: real time    0.0083
     EDDAV:  cpu time   10.1165: real time   10.1474
       DOS:  cpu time    0.0000: real time    0.0003
    CHARGE:  cpu time    0.4799: real time    0.4817
    MIXING:  cpu time    0.1070: real time    0.1076
    --------------------------------------------
      LOOP:  cpu time   12.4301: real time   12.4672

 eigenvalue-minimisations  :   104
 total energy-change (2. order) :-0.2570596E-03  (-0.8208482E-06)
 number of electron      56.0000024 magnetization 
 augmentation part       -3.5218231 magnetization 

 Broyden mixing:
  rms(total) = 0.19238E-03    rms(broyden)= 0.19234E-03
  rms(prec ) = 0.28080E-03
  weight for this iteration     100.00

 eigenvalues of (default mixing * dielectric matrix)
  average eigenvalue GAMMA=   2.4843
  8.1836  5.7023  3.1995  2.6271  2.3604  1.7806  1.7806  1.3844  1.3844  0.9893
  0.9893  0.9571  0.9571

 Free energy of the ion-electron system (eV)
  ---------------------------------------------------
  alpha Z        PSCENC =         1.96423985
  Ewald energy   TEWEN  =      2629.98113996
  -Hartree energ DENC   =     -3564.68937091
  -exchange      EXHF   =         0.00000000
  -V(xc)+E(xc)   XCENC  =       -42.87525415
  PAW double counting   =      3919.71602976    -3758.02004233
  entropy T*S    EENTRO =        -0.00000000
  eigenvalues    EBANDS =      -526.18857095
  atomic energy  EATOM  =      1238.03527989
  Solvation  Ediel_sol  =         0.00000000
  ---------------------------------------------------
  free energy    TOTEN  =      -102.07654889 eV

  energy without entropy =     -102.07654889  energy(sigma->0) =     -102.07654889


--------------------------------------------------------------------------------------------------------




--------------------------------------- Iteration      1(  19)  ---------------------------------------


    POTLOK:  cpu time    1.7267: real time    1.7312
    SETDIJ:  cpu time    0.0090: real time    0.0088
     EDDAV:  cpu time    9.5545: real time    9.5760
       DOS:  cpu time    0.0010: real time    0.0003
    CHARGE:  cpu time    0.4819: real time    0.4846
    MIXING:  cpu time    0.1170: real time    0.1171
    --------------------------------------------
      LOOP:  cpu time   11.8902: real time   11.9180

 eigenvalue-minimisations  :    96
 total energy-change (2. order) :-0.1818824E-03  (-0.6882787E-06)
 number of electron      56.0000024 magnetization 
 augmentation part       -3.5218516 magnetization 

 Broyden mixing:
  rms(total) = 0.19642E-03    rms(broyden)= 0.19641E-03
  rms(prec ) = 0.23543E-03
  weight for this iteration     100.00

 eigenvalues of (default mixing * dielectric matrix)
  average eigenvalue GAMMA=   2.4554
  8.2842  6.0675  3.2727  2.6726  1.9597  1.9597  1.8596  1.6141  1.6141  1.2643
  0.9841  0.9841  0.9193  0.9193

 Free energy of the ion-electron system (eV)
  ---------------------------------------------------
  alpha Z        PSCENC =         1.96423985
  Ewald energy   TEWEN  =      2629.98113996
  -Hartree energ DENC   =     -3564.70851156
  -exchange      EXHF   =         0.00000000
  -V(xc)+E(xc)   XCENC  =       -42.87392273
  PAW double counting   =      3919.57296133    -3757.87727780
  entropy T*S    EENTRO =        -0.00000000
  eigenvalues    EBANDS =      -526.17063971
  atomic energy  EATOM  =      1238.03527989
  Solvation  Ediel_sol  =         0.00000000
  ---------------------------------------------------
  free energy    TOTEN  =      -102.07673077 eV

  energy without entropy =     -102.07673077  energy(sigma->0) =     -102.07673077


--------------------------------------------------------------------------------------------------------




--------------------------------------- Iteration      1(  20)  ---------------------------------------


    POTLOK:  cpu time    1.7267: real time    1.7308
    SETDIJ:  cpu time    0.0080: real time    0.0077
     EDDAV:  cpu time    8.9766: real time    9.0009
       DOS:  cpu time    0.0000: real time    0.0004
    CHARGE:  cpu time    0.4829: real time    0.4833
    MIXING:  cpu time    0.1320: real time    0.1314
    --------------------------------------------
      LOOP:  cpu time   11.3263: real time   11.3544

 eigenvalue-minimisations  :    88
 total energy-change (2. order) :-0.4422719E-04  (-0.7255283E-07)
 number of electron      56.0000024 magnetization 
 augmentation part       -3.5218370 magnetization 

 Broyden mixing:
  rms(total) = 0.53020E-04    rms(broyden)= 0.53019E-04
  rms(prec ) = 0.83986E-04
  weight for this iteration     100.00

 eigenvalues of (default mixing * dielectric matrix)
  average eigenvalue GAMMA=   2.5123
  8.6196  6.3751  4.0205  2.8562  2.5510  1.8273  1.8273  1.8231  1.3712  1.3712
  1.2208  0.9795  0.9795  0.9736  0.8892

 Free energy of the ion-electron system (eV)
  ---------------------------------------------------
  alpha Z        PSCENC =         1.96423985
  Ewald energy   TEWEN  =      2629.98113996
  -Hartree energ DENC   =     -3564.71170283
  -exchange      EXHF   =         0.00000000
  -V(xc)+E(xc)   XCENC  =       -42.87480476
  PAW double counting   =      3919.44240264    -3757.74670131
  entropy T*S    EENTRO =        -0.00000000
  eigenvalues    EBANDS =      -526.16662844
  atomic energy  EATOM  =      1238.03527989
  Solvation  Ediel_sol  =         0.00000000
  ---------------------------------------------------
  free energy    TOTEN  =      -102.07677500 eV

  energy without entropy =     -102.07677500  energy(sigma->0) =     -102.07677500


--------------------------------------------------------------------------------------------------------




--------------------------------------- Iteration      1(  21)  ---------------------------------------


    POTLOK:  cpu time    1.7367: real time    1.7445
    SETDIJ:  cpu time    0.0080: real time    0.0076
     EDDAV:  cpu time    8.3597: real time    8.3728
       DOS:  cpu time    0.0000: real time    0.0003
    CHARGE:  cpu time    0.4859: real time    0.4877
    MIXING:  cpu time    0.1440: real time    0.1440
    --------------------------------------------
      LOOP:  cpu time   10.7344: real time   10.7568

 eigenvalue-minimisations  :    80
 total energy-change (2. order) :-0.3268306E-04  (-0.1121958E-06)
 number of electron      56.0000024 magnetization 
 augmentation part       -3.5218139 magnetization 

 Broyden mixing:
  rms(total) = 0.64173E-04    rms(broyden)= 0.64170E-04
  rms(prec ) = 0.78640E-04
  weight for this iteration     100.00

 eigenvalues of (default mixing * dielectric matrix)
  average eigenvalue GAMMA=   2.4719
  8.5225  6.5889  4.0579  2.8911  2.6240  1.9612  1.9612  1.6736  1.6736  1.5358
  1.2212  0.9842  0.9954  0.9954  0.9321  0.9321

 Free energy of the ion-electron system (eV)
  ---------------------------------------------------
  alpha Z        PSCENC =         1.96423985
  Ewald energy   TEWEN  =      2629.98113996
  -Hartree energ DENC   =     -3564.71947551
  -exchange      EXHF   =         0.00000000
  -V(xc)+E(xc)   XCENC  =       -42.87496574
  PAW double counting   =      3919.53166467    -3757.83608047
  entropy T*S    EENTRO =        -0.00000000
  eigenvalues    EBANDS =      -526.15861033
  atomic energy  EATOM  =      1238.03527989
  Solvation  Ediel_sol  =         0.00000000
  ---------------------------------------------------
  free energy    TOTEN  =      -102.07680768 eV

  energy without entropy =     -102.07680768  energy(sigma->0) =     -102.07680768


--------------------------------------------------------------------------------------------------------




--------------------------------------- Iteration      1(  22)  ---------------------------------------


    POTLOK:  cpu time    1.7097: real time    1.7166
    SETDIJ:  cpu time    0.0080: real time    0.0078
     EDDAV:  cpu time    8.9306: real time    8.9525
       DOS:  cpu time    0.0010: real time    0.0004
    CHARGE:  cpu time    0.4899: real time    0.4907
    MIXING:  cpu time    0.1550: real time    0.1545
    --------------------------------------------
      LOOP:  cpu time   11.2943: real time   11.3224

 eigenvalue-minimisations  :    88
 total energy-change (2. order) :-0.6849347E-05  (-0.1596145E-07)
 number of electron      56.0000024 magnetization 
 augmentation part       -3.5218199 magnetization 

 Broyden mixing:
  rms(total) = 0.23184E-04    rms(broyden)= 0.23183E-04
  rms(prec ) = 0.32498E-04
  weight for this iteration     100.00

 eigenvalues of (default mixing * dielectric matrix)
  average eigenvalue GAMMA=   2.5184
  8.7875  6.7658  4.6407  3.2149  2.5652  2.5652  1.8794  1.8794  1.6385  1.6385
  1.2032  1.2032  0.9712  0.9712  1.0012  0.9437  0.9437

 Free energy of the ion-electron system (eV)
  ---------------------------------------------------
  alpha Z        PSCENC =         1.96423985
  Ewald energy   TEWEN  =      2629.98113996
  -Hartree energ DENC   =     -3564.71917157
  -exchange      EXHF   =         0.00000000
  -V(xc)+E(xc)   XCENC  =       -42.87478448
  PAW double counting   =      3919.62183031    -3757.92617039
  entropy T*S    EENTRO =        -0.00000000
  eigenvalues    EBANDS =      -526.15917810
  atomic energy  EATOM  =      1238.03527989
  Solvation  Ediel_sol  =         0.00000000
  ---------------------------------------------------
  free energy    TOTEN  =      -102.07681453 eV

  energy without entropy =     -102.07681453  energy(sigma->0) =     -102.07681453


--------------------------------------------------------------------------------------------------------




--------------------------------------- Iteration      1(  23)  ---------------------------------------


    POTLOK:  cpu time    1.7167: real time    1.7198
    SETDIJ:  cpu time    0.0080: real time    0.0080
     EDDAV:  cpu time    8.3517: real time    8.3717
       DOS:  cpu time    0.0010: real time    0.0004
    CHARGE:  cpu time    0.4809: real time    0.4846
    MIXING:  cpu time    0.1660: real time    0.1660
    --------------------------------------------
      LOOP:  cpu time   10.7244: real time   10.7504

 eigenvalue-minimisations  :    80
 total energy-change (2. order) :-0.4958049E-05  (-0.1479908E-07)
 number of electron      56.0000024 magnetization 
 augmentation part       -3.5218299 magnetization 

 Broyden mixing:
  rms(total) = 0.16629E-04    rms(broyden)= 0.16628E-04
  rms(prec ) = 0.21055E-04
  weight for this iteration     100.00

 eigenvalues of (default mixing * dielectric matrix)
  average eigenvalue GAMMA=   2.4839
  8.8596  6.8046  4.7731  3.1652  2.6269  2.6269  1.9519  1.9519  1.6741  1.6741
  1.2983  1.2983  0.9385  0.9385  1.0035  1.0035  1.0608  1.0608

 Free energy of the ion-electron system (eV)
  ---------------------------------------------------
  alpha Z        PSCENC =         1.96423985
  Ewald energy   TEWEN  =      2629.98113996
  -Hartree energ DENC   =     -3564.71755502
  -exchange      EXHF   =         0.00000000
  -V(xc)+E(xc)   XCENC  =       -42.87487305
  PAW double counting   =      3919.59158096    -3757.89584064
  entropy T*S    EENTRO =        -0.00000000
  eigenvalues    EBANDS =      -526.16079143
  atomic energy  EATOM  =      1238.03527989
  Solvation  Ediel_sol  =         0.00000000
  ---------------------------------------------------
  free energy    TOTEN  =      -102.07681949 eV

  energy without entropy =     -102.07681949  energy(sigma->0) =     -102.07681949


--------------------------------------------------------------------------------------------------------




--------------------------------------- Iteration      1(  24)  ---------------------------------------


    POTLOK:  cpu time    1.7237: real time    1.7265
    SETDIJ:  cpu time    0.0080: real time    0.0078
     EDDAV:  cpu time    8.3477: real time    8.3746
       DOS:  cpu time    0.0010: real time    0.0004
    CHARGE:  cpu time    0.4819: real time    0.4829
    MIXING:  cpu time    0.1780: real time    0.1781
    --------------------------------------------
      LOOP:  cpu time   10.7404: real time   10.7703

 eigenvalue-minimisations  :    80
 total energy-change (2. order) :-0.2042432E-05  (-0.3172934E-08)
 number of electron      56.0000024 magnetization 
 augmentation part       -3.5218303 magnetization 

 Broyden mixing:
  rms(total) = 0.69017E-05    rms(broyden)= 0.69010E-05
  rms(prec ) = 0.97724E-05
  weight for this iteration     100.00

 eigenvalues of (default mixing * dielectric matrix)
  average eigenvalue GAMMA=   2.5578
  8.8744  7.1186  5.4354  3.8471  2.9816  2.4700  2.4700  1.8680  1.8680  1.6524
  1.6524  1.2287  1.2287  1.0924  0.9790  0.9790  0.9593  0.9463  0.9463

 Free energy of the ion-electron system (eV)
  ---------------------------------------------------
  alpha Z        PSCENC =         1.96423985
  Ewald energy   TEWEN  =      2629.98113996
  -Hartree energ DENC   =     -3564.71836353
  -exchange      EXHF   =         0.00000000
  -V(xc)+E(xc)   XCENC  =       -42.87488506
  PAW double counting   =      3919.54382507    -3757.84811604
  entropy T*S    EENTRO =        -0.00000000
  eigenvalues    EBANDS =      -526.15994166
  atomic energy  EATOM  =      1238.03527989
  Solvation  Ediel_sol  =         0.00000000
  ---------------------------------------------------
  free energy    TOTEN  =      -102.07682153 eV

  energy without entropy =     -102.07682153  energy(sigma->0) =     -102.07682153


--------------------------------------------------------------------------------------------------------




--------------------------------------- Iteration      1(  25)  ---------------------------------------


    POTLOK:  cpu time    1.7307: real time    1.7336
    SETDIJ:  cpu time    0.0080: real time    0.0075
     EDDAV:  cpu time    8.3267: real time    8.3511
       DOS:  cpu time    0.0000: real time    0.0003
    CHARGE:  cpu time    0.4839: real time    0.4843
    MIXING:  cpu time    0.1910: real time    0.1928
    --------------------------------------------
      LOOP:  cpu time   10.7404: real time   10.7696

 eigenvalue-minimisations  :    80
 total energy-change (2. order) :-0.1043775E-05  (-0.1847331E-08)
 number of electron      56.0000024 magnetization 
 augmentation part       -3.5218302 magnetization 

 Broyden mixing:
  rms(total) = 0.46991E-05    rms(broyden)= 0.46988E-05
  rms(prec ) = 0.59736E-05
  weight for this iteration     100.00

 eigenvalues of (default mixing * dielectric matrix)
  average eigenvalue GAMMA=   2.5702
  8.9043  7.2968  5.6660  4.1488  2.7728  2.6643  2.3914  2.3914  1.8736  1.8736
  1.5917  1.5917  1.2025  1.2025  0.9979  0.9979  0.9489  0.9570  0.9652  0.9652

 Free energy of the ion-electron system (eV)
  ---------------------------------------------------
  alpha Z        PSCENC =         1.96423985
  Ewald energy   TEWEN  =      2629.98113996
  -Hartree energ DENC   =     -3564.71922139
  -exchange      EXHF   =         0.00000000
  -V(xc)+E(xc)   XCENC  =       -42.87484456
  PAW double counting   =      3919.54251937    -3757.84682696
  entropy T*S    EENTRO =        -0.00000000
  eigenvalues    EBANDS =      -526.15910874
  atomic energy  EATOM  =      1238.03527989
  Solvation  Ediel_sol  =         0.00000000
  ---------------------------------------------------
  free energy    TOTEN  =      -102.07682257 eV

  energy without entropy =     -102.07682257  energy(sigma->0) =     -102.07682257


--------------------------------------------------------------------------------------------------------




--------------------------------------- Iteration      1(  26)  ---------------------------------------


    POTLOK:  cpu time    1.7407: real time    1.7427
    SETDIJ:  cpu time    0.0080: real time    0.0077
     EDDAV:  cpu time    7.7238: real time    7.7436
       DOS:  cpu time    0.0010: real time    0.0003
    --------------------------------------------
      LOOP:  cpu time    9.4736: real time    9.4942

 eigenvalue-minimisations  :    72
 total energy-change (2. order) :-0.4473604E-06  (-0.3312479E-09)
 number of electron      56.0000024 magnetization 
 augmentation part       -3.5218302 magnetization 

 Free energy of the ion-electron system (eV)
  ---------------------------------------------------
  alpha Z        PSCENC =         1.96423985
  Ewald energy   TEWEN  =      2629.98113996
  -Hartree energ DENC   =     -3564.71893824
  -exchange      EXHF   =         0.00000000
  -V(xc)+E(xc)   XCENC  =       -42.87489379
  PAW double counting   =      3919.53940629    -3757.84371066
  entropy T*S    EENTRO =        -0.00000000
  eigenvalues    EBANDS =      -526.15934632
  atomic energy  EATOM  =      1238.03527989
  Solvation  Ediel_sol  =         0.00000000
  ---------------------------------------------------
  free energy    TOTEN  =      -102.07682302 eV

  energy without entropy =     -102.07682302  energy(sigma->0) =     -102.07682302


--------------------------------------------------------------------------------------------------------




 average (electrostatic) potential at core
  the test charge radii are     0.9892  1.1631  0.5201
  (the norm of the test charge is              1.0000)
       1 -93.3601       2 -93.4238       3 -93.4238       4 -93.4629       5 -93.4374
       6 -93.4374       7 -40.4281       8 -40.4347       9 -40.3937      10 -40.4347
      11 -41.0650      12 -41.0745      13 -40.6888      14 -41.0557      15 -41.0650
      16 -40.7045      17 -40.7058      18 -40.7119      19 -41.0575      20 -41.0650
      21 -41.0555      22 -40.6890      23 -40.7050      24 -40.7045      25 -40.6966
      26 -40.6967
 
 
 
 E-fermi :  -5.3752     XC(G=0):  -0.6064     alpha+bet : -0.3388


 k-point     1 :       0.0000    0.0000    0.0000
  band No.  band energies     occupation 
      1     -15.2323      2.00000
      2     -14.2722      2.00000
      3     -14.0667      2.00000
      4     -13.8689      2.00000
      5     -12.9452      2.00000
      6     -12.8844      2.00000
      7     -11.6683      2.00000
      8     -11.3608      2.00000
      9     -11.3368      2.00000
     10     -10.3878      2.00000
     11      -8.9558      2.00000
     12      -8.6353      2.00000
     13      -8.6181      2.00000
     14      -8.6180      2.00000
     15      -8.1922      2.00000
     16      -8.1767      2.00000
     17      -8.1716      2.00000
     18      -7.8624      2.00000
     19      -7.8550      2.00000
     20      -7.8536      2.00000
     21      -6.7817      2.00000
     22      -6.7806      2.00000
     23      -6.4913      2.00000
     24      -6.4804      2.00000
     25      -6.4549      2.00000
     26      -6.3896      2.00000
     27      -6.3725      2.00000
     28      -6.3665      2.00000
     29      -1.7573      0.00000
     30      -1.4228      0.00000
     31      -1.3537      0.00000
     32      -1.2107      0.00000
     33      -1.1512      0.00000
     34      -1.1262      0.00000
     35      -1.1022      0.00000
     36      -0.9552      0.00000
     37      -0.9395      0.00000
     38      -0.5501      0.00000
     39      -0.4140      0.00000
     40      -0.4015      0.00000
     41      -0.2910      0.00000
     42      -0.2103      0.00000


--------------------------------------------------------------------------------------------------------


 soft charge-density along one line, spin component           1
         0         1         2         3         4         5         6         7         8         9
 total charge-density along one line
 
 pseudopotential strength for first ion, spin component:           1
 19.609  27.364  -0.001   0.002   0.000  -0.001   0.004   0.000
 27.364  38.193  -0.001   0.003   0.000  -0.001   0.005   0.001
 -0.001  -0.001   4.358  -0.000  -0.000   8.129  -0.000  -0.000
  0.002   0.003  -0.000   4.358   0.000  -0.000   8.129   0.000
  0.000   0.000  -0.000   0.000   4.358  -0.000   0.000   8.129
 -0.001  -0.001   8.129  -0.000  -0.000  15.174  -0.000  -0.000
  0.004   0.005  -0.000   8.129   0.000  -0.000  15.174   0.000
  0.000   0.001  -0.000   0.000   8.129  -0.000   0.000  15.174
 total augmentation occupancy for first ion, spin component:           1
  5.583  -2.050   0.069  -0.328  -0.044  -0.021   0.098   0.013
 -2.050   0.812  -0.042   0.200   0.027   0.010  -0.045  -0.006
  0.069  -0.042   2.870  -0.092  -0.011  -0.625   0.034   0.004
 -0.328   0.200  -0.092   3.298   0.061   0.034  -0.781  -0.022
 -0.044   0.027  -0.011   0.061   2.857   0.004  -0.022  -0.620
 -0.021   0.010  -0.625   0.034   0.004   0.142  -0.010  -0.001
  0.098  -0.045   0.034  -0.781  -0.022  -0.010   0.188   0.006
[...]
    SETDIJ:  cpu time    0.0080: real time    0.0076
     EDDAV:  cpu time   11.3563: real time   11.3530
       DOS:  cpu time    0.0000: real time    0.0003
    CHARGE:  cpu time    0.4839: real time    0.4834
    MIXING:  cpu time    0.0480: real time    0.0471
    --------------------------------------------
      LOOP:  cpu time   13.6339: real time   13.6289

 eigenvalue-minimisations  :   120
 total energy-change (2. order) :-0.4539573E-05  (-0.9900124E-05)
 number of electron      56.0000017 magnetization 
 augmentation part       -3.5160356 magnetization 

 Broyden mixing:
  rms(total) = 0.11442E-02    rms(broyden)= 0.11440E-02
  rms(prec ) = 0.12275E-02
  weight for this iteration     100.00

 eigenvalues of (default mixing * dielectric matrix)
  average eigenvalue GAMMA=   1.1957
  1.1957

 Free energy of the ion-electron system (eV)
  ---------------------------------------------------
  alpha Z        PSCENC =         1.96423985
  Ewald energy   TEWEN  =      2644.85249907
  -Hartree energ DENC   =     -3578.69667062
  -exchange      EXHF   =         0.00000000
  -V(xc)+E(xc)   XCENC  =       -42.19611432
  PAW double counting   =      4182.79411158    -4021.19577337
  entropy T*S    EENTRO =        -0.00000000
  eigenvalues    EBANDS =      -527.90054011
  atomic energy  EATOM  =      1238.03527989
  Solvation  Ediel_sol  =         0.00000000
  ---------------------------------------------------
  free energy    TOTEN  =      -102.34296804 eV

  energy without entropy =     -102.34296804  energy(sigma->0) =     -102.34296804


--------------------------------------------------------------------------------------------------------




--------------------------------------- Iteration     20(   3)  ---------------------------------------


    POTLOK:  cpu time    1.7417: real time    1.7440
    SETDIJ:  cpu time    0.0070: real time    0.0078
     EDDAV:  cpu time   11.3223: real time   11.3176
       DOS:  cpu time    0.0000: real time    0.0004
    CHARGE:  cpu time    0.4899: real time    0.4896
    MIXING:  cpu time    0.0490: real time    0.0491
    --------------------------------------------
      LOOP:  cpu time   13.6099: real time   13.6085

 eigenvalue-minimisations  :   120
 total energy-change (2. order) : 0.1549841E-05  (-0.5465180E-06)
 number of electron      56.0000017 magnetization 
 augmentation part       -3.5160173 magnetization 

 Broyden mixing:
  rms(total) = 0.56460E-03    rms(broyden)= 0.56458E-03
  rms(prec ) = 0.59932E-03
  weight for this iteration     100.00

 eigenvalues of (default mixing * dielectric matrix)
  average eigenvalue GAMMA=   1.5937
  1.1083  2.0791

 Free energy of the ion-electron system (eV)
  ---------------------------------------------------
  alpha Z        PSCENC =         1.96423985
  Ewald energy   TEWEN  =      2644.85249907
  -Hartree energ DENC   =     -3578.69026899
  -exchange      EXHF   =         0.00000000
  -V(xc)+E(xc)   XCENC  =       -42.19656812
  PAW double counting   =      4182.58088107    -4020.98242854
  entropy T*S    EENTRO =        -0.00000000
  eigenvalues    EBANDS =      -527.90660071
  atomic energy  EATOM  =      1238.03527989
  Solvation  Ediel_sol  =         0.00000000
  ---------------------------------------------------
  free energy    TOTEN  =      -102.34296649 eV

  energy without entropy =     -102.34296649  energy(sigma->0) =     -102.34296649


--------------------------------------------------------------------------------------------------------




--------------------------------------- Iteration     20(   4)  ---------------------------------------


    POTLOK:  cpu time    1.7367: real time    1.7361
    SETDIJ:  cpu time    0.0090: real time    0.0086
     EDDAV:  cpu time    9.5495: real time    9.5468
       DOS:  cpu time    0.0010: real time    0.0002
    --------------------------------------------
      LOOP:  cpu time   11.2963: real time   11.2916

 eigenvalue-minimisations  :    96
 total energy-change (2. order) :-0.3113291E-06  (-0.1891650E-06)
 number of electron      56.0000017 magnetization 
 augmentation part       -3.5160173 magnetization 

 Free energy of the ion-electron system (eV)
  ---------------------------------------------------
  alpha Z        PSCENC =         1.96423985
  Ewald energy   TEWEN  =      2644.85249907
  -Hartree energ DENC   =     -3578.68434823
  -exchange      EXHF   =         0.00000000
  -V(xc)+E(xc)   XCENC  =       -42.19687446
  PAW double counting   =      4182.37190725    -4020.77339309
  entropy T*S    EENTRO =        -0.00000000
  eigenvalues    EBANDS =      -527.91227708
  atomic energy  EATOM  =      1238.03527989
  Solvation  Ediel_sol  =         0.00000000
  ---------------------------------------------------
  free energy    TOTEN  =      -102.34296680 eV

  energy without entropy =     -102.34296680  energy(sigma->0) =     -102.34296680


--------------------------------------------------------------------------------------------------------




 average (electrostatic) potential at core
  the test charge radii are     0.9892  1.1631  0.5201
  (the norm of the test charge is              1.0000)
       1 -93.2508       2 -93.2719       3 -93.2716       4 -93.3408       5 -93.4060
       6 -93.4061       7 -40.4491       8 -40.4276       9 -40.3823      10 -40.4276
      11 -40.9763      12 -40.9770      13 -40.9005      14 -40.9729      15 -40.9733
      16 -40.8419      17 -40.8406      18 -40.8779      19 -41.0152      20 -40.9733
      21 -40.9728      22 -40.9006      23 -40.8406      24 -40.8417      25 -40.8477
      26 -40.8478
 
 
 
 E-fermi :  -5.3642     XC(G=0):  -0.6047     alpha+bet : -0.3388


 k-point     1 :       0.0000    0.0000    0.0000
  band No.  band energies     occupation 
      1     -15.1371      2.00000
      2     -14.2081      2.00000
      3     -14.0636      2.00000
      4     -13.9884      2.00000
      5     -13.0117      2.00000
      6     -12.9853      2.00000
      7     -11.7393      2.00000
      8     -11.4844      2.00000
      9     -11.4481      2.00000
     10     -10.5134      2.00000
     11      -9.0453      2.00000
     12      -8.6883      2.00000
     13      -8.6735      2.00000
     14      -8.5115      2.00000
     15      -8.2755      2.00000
     16      -8.1106      2.00000
     17      -8.0807      2.00000
     18      -7.9663      2.00000
     19      -7.9196      2.00000
     20      -7.8444      2.00000
     21      -6.8294      2.00000
     22      -6.8285      2.00000
     23      -6.5663      2.00000
     24      -6.5299      2.00000
     25      -6.4299      2.00000
     26      -6.4208      2.00000
     27      -6.3463      2.00000
     28      -6.3101      2.00000
     29      -1.6879      0.00000
     30      -1.4337      0.00000
     31      -1.3556      0.00000
     32      -1.3365      0.00000
     33      -1.1515      0.00000
     34      -1.1487      0.00000
     35      -1.1337      0.00000
     36      -0.9082      0.00000
     37      -0.8697      0.00000
     38      -0.3933      0.00000
     39      -0.3578      0.00000
     40      -0.3076      0.00000
     41      -0.2349      0.00000
     42      -0.1487      0.00000


--------------------------------------------------------------------------------------------------------


 soft charge-density along one line, spin component           1
         0         1         2         3         4         5         6         7         8         9
 total charge-density along one line
 
 pseudopotential strength for first ion, spin component:           1
 19.607  27.362  -0.001   0.002   0.000  -0.001   0.004   0.001
 27.362  38.190  -0.001   0.003   0.000  -0.001   0.006   0.001
 -0.001  -0.001   4.361  -0.000  -0.000   8.135  -0.000  -0.000
  0.002   0.003  -0.000   4.362   0.000  -0.000   8.136   0.000
  0.000   0.000  -0.000   0.000   4.361  -0.000   0.000   8.135
 -0.001  -0.001   8.135  -0.000  -0.000  15.185  -0.000  -0.000
  0.004   0.006  -0.000   8.136   0.000  -0.000  15.186   0.000
  0.001   0.001  -0.000   0.000   8.135  -0.000   0.000  15.185
 total augmentation occupancy for first ion, spin component:           1
  6.073  -2.317   0.085  -0.434  -0.061  -0.027   0.136   0.019
 -2.317   0.941  -0.049   0.253   0.036   0.013  -0.063  -0.009
  0.085  -0.049   3.062  -0.097  -0.009  -0.682   0.035   0.003
 -0.434   0.253  -0.097   3.567   0.078   0.035  -0.863  -0.028
 -0.061   0.036  -0.009   0.078   3.047   0.003  -0.028  -0.677
 -0.027   0.013  -0.682   0.035   0.003   0.158  -0.010  -0.001
  0.136  -0.063   0.035  -0.863  -0.028  -0.010   0.212   0.008
  0.019  -0.009   0.003  -0.028  -0.677  -0.001   0.008   0.157


------------------------ aborting loop because EDIFF is reached ----------------------------------------


    CHARGE:  cpu time    0.4839: real time    0.4836
    FORLOC:  cpu time    0.1710: real time    0.1717
    FORNL :  cpu time    1.0778: real time    1.0773
    STRESS:  cpu time    7.3969: real time    7.3944
    FORCOR:  cpu time    1.7227: real time    1.7216
    FORHAR:  cpu time    0.5829: real time    0.5828
    MIXING:  cpu time    0.0490: real time    0.0489
    OFIELD:  cpu time    0.0000: real time    0.0000

  FORCE on cell =-STRESS in cart. coord.  units (eV):
  Direction    XX          YY          ZZ          XY          YZ          ZX
  --------------------------------------------------------------------------------------
  Alpha Z     1.96424     1.96424     1.96424
  Ewald     883.82013   881.62544   879.40526    -1.66345    -1.31383    -1.79456
  Hartree  1196.00115  1193.21168  1189.46265    -2.05933    -1.12068    -2.29342
  E(xc)    -177.86282  -177.91151  -178.05650    -0.03753    -0.00129    -0.05270
  Local   -2584.14907 -2579.08727 -2573.31317     3.82462     2.58924     4.14752
  n-local   273.85568   274.05796   274.79841     0.12868    -0.07831     0.20671
  augment   -27.69649   -27.67781   -27.67325     0.01835     0.01682     0.01625
  Kinetic   433.09984   432.82401   432.58844    -0.24119    -0.14495    -0.22499
  Fock        0.00000     0.00000     0.00000     0.00000     0.00000     0.00000
  -------------------------------------------------------------------------------------
  Total      -0.96734    -0.99327    -0.82393    -0.02985    -0.05300     0.00482
  in kB      -0.19373    -0.19892    -0.16501    -0.00598    -0.01061     0.00096
  external pressure =       -0.19 kB  Pullay stress =        0.00 kB


 VOLUME and BASIS-vectors are now :
 -----------------------------------------------------------------------------
  energy-cutoff  :      400.00
  volume of cell :     8000.00
      direct lattice vectors                 reciprocal lattice vectors
    20.000000000  0.000000000  0.000000000     0.050000000  0.000000000  0.000000000
     0.000000000 20.000000000  0.000000000     0.000000000  0.050000000  0.000000000
     0.000000000  0.000000000 20.000000000     0.000000000  0.000000000  0.050000000

  length of vectors
    20.000000000 20.000000000 20.000000000     0.050000000  0.050000000  0.050000000


 FORCES acting on ions
    electron-ion (+dipol)            ewald-force                    non-local-force                 convergence-correction
 -----------------------------------------------------------------------------------------------
   0.118E+02 -.189E+02 0.886E+02   -.120E+02 0.192E+02 -.898E+02   0.160E+00 -.273E+00 0.124E+01   0.105E-03 0.347E-04 0.309E-03
   0.887E+02 -.570E+01 0.466E+02   -.902E+02 0.574E+01 -.474E+02   0.155E+01 -.400E-01 0.745E+00   0.260E-03 0.237E-03 -.246E-03
   -.375E+02 0.541E+02 0.759E+02   0.381E+02 -.550E+02 -.772E+02   -.637E+00 0.993E+00 0.126E+01   -.582E-04 0.417E-03 -.183E-03
   -.298E+02 -.842E+02 0.435E+02   0.302E+02 0.857E+02 -.450E+02   -.364E+00 -.151E+01 0.150E+01   -.282E-03 -.333E-03 -.655E-03
   0.804E+02 0.135E+02 -.425E+02   -.822E+02 -.136E+02 0.424E+02   0.179E+01 0.813E-01 0.144E+00   0.170E-03 0.116E-03 0.305E-03
   -.511E+02 0.756E+02 -.118E+02   0.520E+02 -.769E+02 0.110E+02   -.899E+00 0.135E+01 0.771E+00   0.899E-04 0.178E-03 0.324E-03
   -.438E+02 -.711E+02 -.434E+02   0.441E+02 0.718E+02 0.433E+02   -.288E+00 -.660E+00 0.100E+00   -.307E-03 -.569E-03 -.196E-03
   -.882E+02 0.371E+01 -.476E+02   0.889E+02 -.405E+01 0.480E+02   -.780E+00 0.342E+00 -.356E+00   -.333E-03 -.555E-03 0.186E-04
   0.291E+02 0.847E+02 -.473E+02   -.293E+02 -.853E+02 0.476E+02   0.210E+00 0.610E+00 -.336E+00   0.280E-03 0.433E-03 0.373E-03
   0.354E+02 -.548E+02 -.763E+02   -.360E+02 0.551E+02 0.770E+02   0.563E+00 -.294E+00 -.670E+00   -.227E-03 -.614E-03 0.278E-05
   0.203E+02 0.400E+02 0.538E+01   -.215E+02 -.420E+02 -.642E+01   0.117E+01 0.196E+01 0.104E+01   0.552E-04 0.836E-04 0.780E-04
   0.108E+01 0.217E+02 -.396E+02   -.771E+00 -.223E+02 0.420E+02   -.310E+00 0.544E+00 -.243E+01   0.220E-04 0.883E-04 -.783E-04
   -.267E+02 0.405E+02 -.434E+01   0.283E+02 -.430E+02 0.458E+01   -.158E+01 0.244E+01 -.249E+00   0.376E-04 0.405E-04 0.108E-03
   -.443E+02 -.363E+01 0.495E+01   0.465E+02 0.398E+01 -.597E+01   -.227E+01 -.355E+00 0.102E+01   -.172E-03 -.856E-04 -.134E-05
   -.199E+02 0.743E+01 -.395E+02   0.203E+02 -.794E+01 0.419E+02   -.352E+00 0.504E+00 -.244E+01   -.113E-03 -.747E-04 -.150E-03
   -.370E+02 0.508E+01 0.292E+02   0.396E+02 -.468E+01 -.305E+02   -.260E+01 -.405E+00 0.134E+01   -.373E-04 0.223E-04 -.678E-04
   0.904E+01 0.359E+02 0.295E+02   -.104E+02 -.382E+02 -.309E+02   0.136E+01 0.224E+01 0.135E+01   0.293E-04 0.619E-04 -.811E-04
   0.672E+01 -.953E+01 0.477E+02   -.712E+01 0.101E+02 -.506E+02   0.400E+00 -.543E+00 0.282E+01   0.403E-04 0.227E-04 0.116E-03
   -.217E+02 -.356E+02 -.206E+02   0.228E+02 0.375E+02 0.217E+02   -.115E+01 -.189E+01 -.110E+01   0.308E-04 0.374E-04 0.576E-04
   0.239E+01 -.317E+01 -.445E+02   -.207E+01 0.269E+01 0.469E+02   -.319E+00 0.489E+00 -.245E+01   -.503E-04 -.107E-03 -.160E-03
   0.243E+02 -.361E+02 -.111E+02   -.257E+02 0.382E+02 0.109E+02   0.139E+01 -.208E+01 0.166E+00   0.282E-04 -.183E-03 -.473E-04
   0.434E+02 0.746E+01 -.208E+02   -.460E+02 -.792E+01 0.220E+02   0.261E+01 0.456E+00 -.123E+01   0.475E-04 0.350E-04 0.107E-03
   0.322E+02 0.250E+02 0.242E+02   -.336E+02 -.273E+02 -.255E+02   0.139E+01 0.223E+01 0.135E+01   -.197E-05 0.731E-04 -.708E-04
   0.352E+02 -.291E+02 0.124E+02   -.368E+02 0.316E+02 -.128E+02   0.166E+01 -.242E+01 0.343E+00   0.125E-04 -.676E-05 -.766E-04
   0.135E+02 -.433E+02 0.121E+02   -.151E+02 0.457E+02 -.125E+02   0.162E+01 -.245E+01 0.336E+00   -.276E-04 -.643E-04 -.124E-03
   -.354E+02 -.204E+02 0.235E+02   0.380E+02 0.208E+02 -.248E+02   -.261E+01 -.453E+00 0.132E+01   -.728E-04 -.404E-04 -.111E-03
 -----------------------------------------------------------------------------------------------
   -.170E+01 -.853E+00 -.558E+01   -.995E-13 0.355E-13 0.391E-13   0.170E+01 0.855E+00 0.558E+01   -.473E-03 -.752E-03 -.449E-03
 
 
 POSITION                                       TOTAL-FORCE (eV/Angst)
 -----------------------------------------------------------------------------------
      9.51474     11.11677      7.73364        -0.001124     -0.001452     -0.001441
      7.41205     10.78444      8.74230         0.009343      0.002444     -0.003516
     10.82586      9.17123      7.94636        -0.004873      0.009202     -0.000263
     10.61125     12.95081      8.71805        -0.002082     -0.005613      0.001575
      7.66347     10.29705     11.02669         0.002692      0.005861      0.010842
     11.15722      8.64601     10.21209         0.006589      0.003971      0.009981
     10.94772     12.51008     11.05406        -0.005485     -0.014036      0.004210
     12.29133     10.46878     11.29240         0.001448      0.001599      0.004572
      9.01837      8.32502     11.26187         0.000525     -0.000776      0.004899
      8.76518     12.13507     12.11471         0.001944      0.001148      0.004395
      8.29210      7.10819     10.61353         0.001680      0.004712     -0.001947
      9.21165      7.98972     12.77069         0.001015      0.002278      0.000257
     11.97285      7.39163     10.34025        -0.002773      0.001248     -0.000742
     13.69787     10.68799     10.65793        -0.007372     -0.003664      0.001395
     12.50814     10.15532     12.80289        -0.000690     -0.000877     -0.004574
     12.14712      9.37936      7.26912        -0.000268      0.000478      0.000149
     10.13512      8.03116      7.25998         0.000203      0.001143     -0.000812
      9.30725     11.39834      6.27239        -0.001835      0.001124     -0.010666
     11.67451     13.70704     11.74584        -0.003417     -0.004875     -0.005144
      8.96220     11.83086     13.62982        -0.001645     -0.000266     -0.004350
      7.90083     13.42769     12.01013         0.002176     -0.007927     -0.000700
      6.32130     10.06222     11.65794         0.002397     -0.001052     -0.002284
      6.70917      9.65011      8.05873         0.000381      0.001179     -0.000676
      6.57149     12.01379      8.56929         0.000368      0.000184      0.000074
      9.78819     14.19137      8.54891        -0.000388      0.002602     -0.002339
     11.93243     13.17797      8.04873         0.001191      0.001364     -0.002895
 -----------------------------------------------------------------------------------
    total drift:                               -0.000909      0.001493      0.000879


--------------------------------------------------------------------------------------------------------



  FREE ENERGIE OF THE ION-ELECTRON SYSTEM (eV)
  ---------------------------------------------------
  free  energy   TOTEN  =      -102.34296680 eV

  energy  without entropy=     -102.34296680  energy(sigma->0) =     -102.34296680
 
 d Force = 0.1004016E-03[ 0.616E-04, 0.139E-03]  d Energy = 0.1011037E-03-0.702E-06
 d Force =-0.1129713E-01[-0.113E-01,-0.113E-01]  d Ewald  =-0.1129715E-01 0.188E-07


--------------------------------------------------------------------------------------------------------


    POTLOK:  cpu time    1.7497: real time    1.7496


--------------------------------------------------------------------------------------------------------


 Conjugate gradient step on ions:
 trial-energy change:   -0.000101  1 .order   -0.000100   -0.000139   -0.000062
  (g-gl).g = 0.211E-03      g.g   = 0.210E-03  gl.gl    = 0.173E-03
 g(Force)  = 0.210E-03   g(Stress)= 0.000E+00 ortho     = 0.201E-08
 gamma     =   1.21684
 trial     =   0.66193
 opt step  =   1.18695  (harmonic =   1.18695) maximal distance =0.00164995
 next E    =  -102.342991   (d E  =  -0.00012)


--------------------------------------------------------------------------------------------------------


  
 reached required accuracy - stopping structural energy minimisation
 writing wavefunctions
     LOOP+:  cpu time   63.3464: real time   63.8067
    4ORBIT:  cpu time    0.0000: real time    0.0000

 total amount of memory used by VASP MPI-rank0   131440. kBytes
=======================================================================

   base      :      30000. kBytes
   nonl-proj :      17624. kBytes
   fftplans  :      26957. kBytes
   grid      :      48673. kBytes
   one-center:         40. kBytes
   wavefun   :       8146. kBytes
 
  
  
 General timing and accounting informations for this job:
 ========================================================
  
                  Total CPU time used (sec):     2660.617
                            User time (sec):     2627.015
                          System time (sec):       33.603
                         Elapsed time (sec):     2666.498
  
                   Maximum memory used (kb):      186980.
                   Average memory used (kb):           0.
  
                          Minor page faults:      6461951
                          Major page faults:           11
                 Voluntary context switches:         3947
