 vasp.5.4.4.18Apr17-6-g9f103f2a35 (build Nov 06 2017 19:16:10) complex          
  
 executed on           IFC91_ompi date 2018.07.14  13:04:00
 running on   12 total cores
 distrk:  each k-point on   12 cores,    1 groups
 distr:  one band on NCORES_PER_BAND=   6 cores,    2 groups


--------------------------------------------------------------------------------------------------------


 INCAR:
 POTCAR:    PAW_PBE Si 05Jan2001                  
 POTCAR:    PAW_PBE Ge 05Jan2001                  
 POTCAR:    PAW_PBE H 15Jun2001                   
 POTCAR:    PAW_PBE Si 05Jan2001                  
   VRHFIN =Si: s2p2                                                             
   LEXCH  = PE                                                                  
   EATOM  =   103.0669 eV,    7.5752 Ry                                         
                                                                                
   TITEL  = PAW_PBE Si 05Jan2001                                                
   LULTRA =        F    use ultrasoft PP ?                                      
   IUNSCR =        1    unscreen: 0-lin 1-nonlin 2-no                           
   RPACOR =    1.500    partial core radius                                     
   POMASS =   28.085; ZVAL   =    4.000    mass and valenz                      
   RCORE  =    1.900    outmost cutoff radius                                   
   RWIGS  =    2.480; RWIGS  =    1.312    wigner-seitz radius (au A)           
   ENMAX  =  245.345; ENMIN  =  184.009 eV                                      
   ICORE  =        2    local potential                                         
   LCOR   =        T    correct aug charges                                     
   LPAW   =        T    paw PP                                                  
   EAUG   =  322.069                                                            
   DEXC   =    0.000                                                            
   RMAX   =    1.950    core radius for proj-oper                               
   RAUG   =    1.300    factor for augmentation sphere                          
   RDEP   =    1.993    radius for radial grids                                 
   RDEPT  =    1.837    core radius for aug-charge                              
                                                                                
   Atomic configuration                                                         
    6 entries                                                                   
     n  l   j            E        occ.                                          
     1  0  0.50     -1785.8828   2.0000                                         
     2  0  0.50      -139.4969   2.0000                                         
     2  1  1.50       -95.5546   6.0000                                         
     3  0  0.50       -10.8127   2.0000                                         
     3  1  0.50        -4.0811   2.0000                                         
     3  2  1.50        -4.0817   0.0000                                         
   Description                                                                  
     l       E           TYP  RCUT    TYP  RCUT                                 
     0    -10.8127223     23  1.900                                             
     0     -7.6451159     23  1.900                                             
     1     -4.0811372     23  1.900                                             
     1      2.4879257     23  1.900                                             
     2     -4.0817478      7  1.900                                             
  local pseudopotential read in
  partial core-charges read in
  partial kinetic energy density read in
  atomic valenz-charges read in
  non local Contribution for L=           0  read in
    real space projection operators read in
  non local Contribution for L=           0  read in
    real space projection operators read in
  non local Contribution for L=           1  read in
    real space projection operators read in
  non local Contribution for L=           1  read in
    real space projection operators read in
    PAW grid and wavefunctions read in
 
   number of l-projection  operators is LMAX  =           4
   number of lm-projection operators is LMMAX =           8
 
 POTCAR:    PAW_PBE Ge 05Jan2001                  
   VRHFIN =Ge: s2p2                                                             
   LEXCH  = PE                                                                  
   EATOM  =   104.9960 eV,    7.7170 Ry                                         
                                                                                
   TITEL  = PAW_PBE Ge 05Jan2001                                                
   LULTRA =        F    use ultrasoft PP ?                                      
   IUNSCR =        1    unscreen: 0-lin 1-nonlin 2-no                           
   RPACOR =    2.170    partial core radius                                     
   POMASS =   72.610; ZVAL   =    4.000    mass and valenz                      
   RCORE  =    2.300    outmost cutoff radius                                   
   RWIGS  =    2.300; RWIGS  =    1.217    wigner-seitz radius (au A)           
   ENMAX  =  173.807; ENMIN  =  130.355 eV                                      
   ICORE  =        3    local potential                                         
   LCOR   =        T    correct aug charges                                     
   LPAW   =        T    paw PP                                                  
   EAUG   =  385.843                                                            
   DEXC   =    0.000                                                            
   RMAX   =    2.342    core radius for proj-oper                               
   RAUG   =    1.300    factor for augmentation sphere                          
   RDEP   =    2.318    radius for radial grids                                 
   RDEPT  =    2.103    core radius for aug-charge                              
                                                                                
   Atomic configuration                                                         
   10 entries                                                                   
     n  l   j            E        occ.                                          
     1  0  0.50    -10959.8463   2.0000                                         
     2  0  0.50     -1371.6056   2.0000                                         
     2  1  1.50     -1198.4791   6.0000                                         
     3  0  0.50      -168.4733   2.0000                                         
     3  1  1.50      -115.6019   6.0000                                         
     3  2  2.50       -29.3106  10.0000                                         
     4  0  0.50       -11.7309   2.0000                                         
     4  1  0.50        -3.8952   2.0000                                         
     4  2  1.50        -4.0817   0.0000                                         
     4  3  2.50        -4.0817   0.0000                                         
   Description                                                                  
     l       E           TYP  RCUT    TYP  RCUT                                 
     0    -11.7309493     23  2.300                                             
     0     -7.4578696     23  2.300                                             
     1     -3.8952261     23  2.300                                             
     1      6.1178114     23  2.300                                             
     2     -4.0817478     23  2.300                                             
     3     -1.3605826      7  2.300                                             
  local pseudopotential read in
  partial core-charges read in
  partial kinetic energy density read in
  atomic valenz-charges read in
  non local Contribution for L=           0  read in
    real space projection operators read in
  non local Contribution for L=           0  read in
    real space projection operators read in
  non local Contribution for L=           1  read in
    real space projection operators read in
  non local Contribution for L=           1  read in
    real space projection operators read in
  non local Contribution for L=           2  read in
    real space projection operators read in
    PAW grid and wavefunctions read in
 
   number of l-projection  operators is LMAX  =           5
   number of lm-projection operators is LMMAX =          13
 
 POTCAR:    PAW_PBE H 15Jun2001                   
   VRHFIN =H: ultrasoft test                                                    
   LEXCH  = PE                                                                  
   EATOM  =    12.4884 eV,    0.9179 Ry                                         
                                                                                
   TITEL  = PAW_PBE H 15Jun2001                                                 
   LULTRA =        F    use ultrasoft PP ?                                      
   IUNSCR =        0    unscreen: 0-lin 1-nonlin 2-no                           
   RPACOR =    0.000    partial core radius                                     
   POMASS =    1.000; ZVAL   =    1.000    mass and valenz                      
   RCORE  =    1.100    outmost cutoff radius                                   
   RWIGS  =    0.700; RWIGS  =    0.370    wigner-seitz radius (au A)           
   ENMAX  =  250.000; ENMIN  =  200.000 eV                                      
   RCLOC  =    0.701    cutoff for local pot                                    
   LCOR   =        T    correct aug charges                                     
   LPAW   =        T    paw PP                                                  
   EAUG   =  400.000                                                            
   RMAX   =    1.123    core radius for proj-oper                               
   RAUG   =    1.200    factor for augmentation sphere                          
   RDEP   =    1.112    radius for radial grids                                 
   RDEPT  =    0.926    core radius for aug-charge                              
                                                                                
   Atomic configuration                                                         
    2 entries                                                                   
     n  l   j            E        occ.                                          
     1  0  0.50        -6.4927   1.0000                                         
     2  1  0.50        -3.4015   0.0000                                         
   Description                                                                  
     l       E           TYP  RCUT    TYP  RCUT                                 
     0     -6.4927494     23  1.100                                             
     0      6.8029130     23  1.100                                             
     1     -4.0817478     23  1.100                                             
  local pseudopotential read in
  atomic valenz-charges read in
  non local Contribution for L=           0  read in
    real space projection operators read in
  non local Contribution for L=           0  read in
    real space projection operators read in
  non local Contribution for L=           1  read in
    real space projection operators read in
    PAW grid and wavefunctions read in
 
   number of l-projection  operators is LMAX  =           3
   number of lm-projection operators is LMMAX =           5
 

 ----------------------------------------------------------------------------- 
|                                                                             |
|  ADVICE TO THIS USER RUNNING 'VASP/VAMP'   (HEAR YOUR MASTER'S VOICE ...):  |
|                                                                             |
|      You have a (more or less) 'large supercell' and for larger cells       |
|      it might be more efficient to use real space projection opertators     |
|      So try LREAL= Auto  in the INCAR   file.                               |
|      Mind:          For very  accurate calculation you might also keep the  |
|      reciprocal projection scheme          (i.e. LREAL=.FALSE.)             |
|                                                                             |
 ----------------------------------------------------------------------------- 

  PAW_PBE Si 05Jan2001                  :
 energy of atom  1       EATOM= -103.0669
 kinetic energy error for atom=    0.0012 (will be added to EATOM!!)
  PAW_PBE Ge 05Jan2001                  :
 energy of atom  2       EATOM= -104.9960
 kinetic energy error for atom=    0.0003 (will be added to EATOM!!)
  PAW_PBE H 15Jun2001                   :
 energy of atom  3       EATOM=  -12.4884
 kinetic energy error for atom=    0.0098 (will be added to EATOM!!)
 
 
 POSCAR: SiGeH16                                 
  positions in direct lattice
  No initial velocities read in
 exchange correlation table for  LEXCH =        8
   RHO(1)=    0.500       N(1)  =     2000
   RHO(2)=  100.500       N(2)  =     4000
 


--------------------------------------------------------------------------------------------------------


 ion  position               nearest neighbor table
   1  0.475  0.556  0.385-  18 1.55   8 2.39   2 2.39   7 2.39
   2  0.369  0.539  0.436-  23 1.55  24 1.55   9 2.39   1 2.39
   3  0.557  0.433  0.512-  13 1.55   7 2.39  10 2.39   5 2.39
   4  0.547  0.624  0.554-  19 1.55   8 2.39  10 2.39   6 2.39
   5  0.451  0.416  0.564-  12 1.55  11 1.55   9 2.39   3 2.39
   6  0.440  0.606  0.605-  20 1.55  21 1.55   9 2.39   4 2.39
   7  0.542  0.457  0.396-  17 1.55  16 1.55   3 2.39   1 2.39
   8  0.531  0.648  0.437-  25 1.55  26 1.55   4 2.39   1 2.39
   9  0.385  0.515  0.552-  22 1.55   6 2.39   5 2.39   2 2.39
  10  0.613  0.525  0.565-  15 1.55  14 1.55   4 2.39   3 2.39
  11  0.415  0.357  0.529-   5 1.55
  12  0.461  0.400  0.639-   5 1.55
  13  0.600  0.369  0.520-   3 1.55
  14  0.682  0.536  0.531-  10 1.55
  15  0.623  0.509  0.640-  10 1.55
  16  0.611  0.469  0.363-   7 1.55
  17  0.506  0.398  0.362-   7 1.55
  18  0.465  0.572  0.309-   1 1.55
  19  0.583  0.683  0.588-   4 1.55
  20  0.451  0.590  0.680-   6 1.55
  21  0.397  0.670  0.598-   6 1.55
  22  0.316  0.504  0.586-   9 1.55
  23  0.333  0.479  0.402-   2 1.55
  24  0.326  0.603  0.429-   2 1.55
  25  0.488  0.712  0.430-   8 1.55
  26  0.600  0.659  0.404-   8 1.55
 
  LATTYP: Found a simple cubic cell.
 ALAT       =    20.0000000000
  
  Lattice vectors:
  
 A1 = (  20.0000000000,   0.0000000000,   0.0000000000)
 A2 = (   0.0000000000,  20.0000000000,   0.0000000000)
 A3 = (   0.0000000000,   0.0000000000,  20.0000000000)


Analysis of symmetry for initial positions (statically):
=====================================================================
 Subroutine PRICEL returns:
 Original cell was already a primitive cell.
 

 Routine SETGRP: Setting up the symmetry group for a 
 simple cubic supercell.


 Subroutine GETGRP returns: Found  1 space group operations
 (whereof  1 operations were pure point group operations)
 out of a pool of 48 trial point group operations.


The static configuration has the point symmetry C_1 .


Analysis of symmetry for dynamics (positions and initial velocities):
=====================================================================
 Subroutine PRICEL returns:
 Original cell was already a primitive cell.
 

 Routine SETGRP: Setting up the symmetry group for a 
 simple cubic supercell.


 Subroutine GETGRP returns: Found  1 space group operations
 (whereof  1 operations were pure point group operations)
 out of a pool of 48 trial point group operations.


The dynamic configuration has the point symmetry C_1 .


 Subroutine INISYM returns: Found  1 space group operations
 (whereof  1 operations are pure point group operations),
 and found     1 'primitive' translations

 
 
 KPOINTS: Automatic mesh                          

Automatic generation of k-mesh.
Space group operators:
 irot       det(A)        alpha          n_x          n_y          n_z        tau_x        tau_y        tau_z
    1     1.000000     0.000000     1.000000     0.000000     0.000000     0.000000     0.000000     0.000000
 
 Subroutine IBZKPT returns following result:
 ===========================================
 
 Found      1 irreducible k-points:
 
 Following reciprocal coordinates:
            Coordinates               Weight
  0.000000  0.000000  0.000000      1.000000
 
 Following cartesian coordinates:
            Coordinates               Weight
  0.000000  0.000000  0.000000      1.000000
 


--------------------------------------------------------------------------------------------------------




 Dimension of arrays:
   k-points           NKPTS =      1   k-points in BZ     NKDIM =      1   number of bands    NBANDS=     42
   number of dos      NEDOS =    301   number of ions     NIONS =     26
   non local maximal  LDIM  =      5   non local SUM 2l+1 LMDIM =     13
   total plane-waves  NPLWV = 941192
   max r-space proj   IRMAX =      1   max aug-charges    IRDMAX=   6593
   dimension x,y,z NGX =    98 NGY =   98 NGZ =   98
   dimension x,y,z NGXF=   196 NGYF=  196 NGZF=  196
   support grid    NGXF=   196 NGYF=  196 NGZF=  196
   ions per type =               6   4  16
   NGX,Y,Z   is equivalent  to a cutoff of   8.15,  8.15,  8.15 a.u.
   NGXF,Y,Z  is equivalent  to a cutoff of  16.29, 16.29, 16.29 a.u.

 SYSTEM =  SiGe                                    
 POSCAR =  SiGeH16                                 

 Startparameter for this run:
   NWRITE =      2    write-flag & timer
   PREC   = normal    normal or accurate (medium, high low for compatibility)
   ISTART =      0    job   : 0-new  1-cont  2-samecut
   ICHARG =      2    charge: 1-file 2-atom 10-const
   ISPIN  =      1    spin polarized calculation?
   LNONCOLLINEAR =      F non collinear calculations
   LSORBIT =      F    spin-orbit coupling
   INIWAV =      1    electr: 0-lowe 1-rand  2-diag
   LASPH  =      F    aspherical Exc in radial PAW
   METAGGA=      F    non-selfconsistent MetaGGA calc.

 Electronic Relaxation 1
   ENCUT  =  400.0 eV  29.40 Ry    5.42 a.u.  32.61 32.61 32.61*2*pi/ulx,y,z
   ENINI  =  400.0     initial cutoff
   ENAUG  =  400.0 eV  augmentation charge cutoff
   NELM   =     60;   NELMIN=  2; NELMDL= -5     # of ELM steps 
   EDIFF  = 0.1E-05   stopping-criterion for ELM
   LREAL  =      F    real-space projection
   NLSPLINE    = F    spline interpolate recip. space projectors
   LCOMPAT=      F    compatible to vasp.4.4
   GGA_COMPAT  = T    GGA compatible to vasp.4.4-vasp.4.6
   LMAXPAW     = -100 max onsite density
   LMAXMIX     =    2 max onsite mixed and CHGCAR
   VOSKOWN=      0    Vosko Wilk Nusair interpolation
   ROPT   =    0.00000   0.00000   0.00000
 Ionic relaxation
   EDIFFG = -.2E-01   stopping-criterion for IOM
   NSW    =    200    number of steps for IOM
   NBLOCK =      1;   KBLOCK =    200    inner block; outer block 
   IBRION =      2    ionic relax: 0-MD 1-quasi-New 2-CG
   NFREE  =      1    steps in history (QN), initial steepest desc. (CG)
   ISIF   =      2    stress and relaxation
   IWAVPR =     11    prediction:  0-non 1-charg 2-wave 3-comb
   ISYM   =      2    0-nonsym 1-usesym 2-fastsym
   LCORR  =      T    Harris-Foulkes like correction to forces

   POTIM  = 0.5000    time-step for ionic-motion
   TEIN   =    0.0    initial temperature
   TEBEG  =    0.0;   TEEND  =   0.0 temperature during run
   SMASS  =  -3.00    Nose mass-parameter (am)
   estimated Nose-frequenzy (Omega)   =  0.10E-29 period in steps =****** mass=  -0.914E-26a.u.
   SCALEE = 1.0000    scale energy and forces
   NPACO  =    256;   APACO  = 16.0  distance and # of slots for P.C.
   PSTRESS=    0.0 pullay stress

  Mass of Ions in am
   POMASS =  28.09 72.61  1.00
  Ionic Valenz
   ZVAL   =   4.00  4.00  1.00
  Atomic Wigner-Seitz radii
   RWIGS  =  -1.00 -1.00 -1.00
  virtual crystal weights 
   VCA    =   1.00  1.00  1.00
   NELECT =      56.0000    total number of electrons
   NUPDOWN=      -1.0000    fix difference up-down

 DOS related values:
   EMIN   =  10.00;   EMAX   =-10.00  energy-range for DOS
   EFERMI =   0.00
   ISMEAR =     0;   SIGMA  =   0.20  broadening in eV -4-tet -1-fermi 0-gaus

 Electronic relaxation 2 (details)
   IALGO  =     38    algorithm
   LDIAG  =      T    sub-space diagonalisation (order eigenvalues)
   LSUBROT=      F    optimize rotation matrix (better conditioning)
   TURBO    =      0    0=normal 1=particle mesh
   IRESTART =      0    0=no restart 2=restart with 2 vectors
   NREBOOT  =      0    no. of reboots
   NMIN     =      0    reboot dimension
   EREF     =   0.00    reference energy to select bands
   IMIX   =      4    mixing-type and parameters
     AMIX     =   0.40;   BMIX     =  1.00
     AMIX_MAG =   1.60;   BMIX_MAG =  1.00
     AMIN     =   0.10
     WC   =   100.;   INIMIX=   1;  MIXPRE=   1;  MAXMIX= -45

 Intra band minimization:
   WEIMIN = 0.0010     energy-eigenvalue tresh-hold
   EBREAK =  0.60E-08  absolut break condition
   DEPER  =   0.30     relativ break condition  

   TIME   =   0.40     timestep for ELM

  volume/ion in A,a.u.               =     307.69      2076.41
  Fermi-wavevector in a.u.,A,eV,Ry     =   0.313166  0.591797  1.334361  0.098073
  Thomas-Fermi vector in A             =   1.193276
 
 Write flags
   LWAVE        =      T    write WAVECAR
   LDOWNSAMPLE  =      F    k-point downsampling of WAVECAR
   LCHARG       =      T    write CHGCAR
   LVTOT        =      F    write LOCPOT, total local potential
   LVHAR        =      F    write LOCPOT, Hartree potential only
   LELF         =      F    write electronic localiz. function (ELF)
   LORBIT       =      0    0 simple, 1 ext, 2 COOP (PROOUT), +10 PAW based schemes


 Dipole corrections
   LMONO  =      F    monopole corrections only (constant potential shift)
   LDIPOL =      F    correct potential (dipole corrections)
   IDIPOL =      0    1-x, 2-y, 3-z, 4-all directions 
   EPSILON=  1.0000000 bulk dielectric constant

 Exchange correlation treatment:
   GGA     =    --    GGA type
   LEXCH   =     8    internal setting for exchange type
   VOSKOWN=      0    Vosko Wilk Nusair interpolation
   LHFCALC =     F    Hartree Fock is set to
   LHFONE  =     F    Hartree Fock one center treatment
   AEXX    =    0.0000 exact exchange contribution

 Linear response parameters
   LEPSILON=     F    determine dielectric tensor
   LRPA    =     F    only Hartree local field effects (RPA)
   LNABLA  =     F    use nabla operator in PAW spheres
   LVEL    =     F    velocity operator in full k-point grid
   LINTERFAST=   F  fast interpolation
   KINTER  =     0    interpolate to denser k-point grid
   CSHIFT  =0.1000    complex shift for real part using Kramers Kronig
   OMEGAMAX=  -1.0    maximum frequency
   DEG_THRESHOLD= 0.2000000E-02 threshold for treating states as degnerate
   RTIME   =   -0.100 relaxation time in fs
  (WPLASMAI=    0.000 imaginary part of plasma frequency in eV, 0.658/RTIME)
   DFIELD  = 0.0000000 0.0000000 0.0000000 field for delta impulse in time
 
 Orbital magnetization related:
   ORBITALMAG=     F  switch on orbital magnetization
   LCHIMAG   =     F  perturbation theory with respect to B field
   DQ        =  0.001000  dq finite difference perturbation B field
   LLRAUG    =     F  two centre corrections for induced B field



--------------------------------------------------------------------------------------------------------


 conjugate gradient relaxation of ions
 charge density and potential will be updated during run
 non-spin polarized calculation
 Variant of blocked Davidson
 Davidson routine will perform the subspace rotation
 perform sub-space diagonalisation
    after iterative eigenvector-optimisation
 modified Broyden-mixing scheme, WC =      100.0
 initial mixing is a Kerker type mixing with AMIX =  0.4000 and BMIX =      1.0000
 Hartree-type preconditioning will be used
 using additional bands           14
 reciprocal scheme for non local part
 use partial core corrections
 calculate Harris-corrections to forces 
   (improved forces if not selfconsistent)
 use gradient corrections 
 use of overlap-Matrix (Vanderbilt PP)
 Gauss-broadening in eV      SIGMA  =   0.20


--------------------------------------------------------------------------------------------------------


  energy-cutoff  :      400.00
  volume of cell :     8000.00
      direct lattice vectors                 reciprocal lattice vectors
    20.000000000  0.000000000  0.000000000     0.050000000  0.000000000  0.000000000
     0.000000000 20.000000000  0.000000000     0.000000000  0.050000000  0.000000000
     0.000000000  0.000000000 20.000000000     0.000000000  0.000000000  0.050000000

  length of vectors
    20.000000000 20.000000000 20.000000000     0.050000000  0.050000000  0.050000000


 
 k-points in units of 2pi/SCALE and weight: Automatic mesh                          
   0.00000000  0.00000000  0.00000000       1.000
 
 k-points in reciprocal lattice and weights: Automatic mesh                          
   0.00000000  0.00000000  0.00000000       1.000
 
 position of ions in fractional coordinates (direct lattice) 
   0.47547100  0.55626000  0.38465300
   0.36907800  0.53906000  0.43641200
   0.55736800  0.43311000  0.51215000
   0.54669200  0.62364400  0.55351800
   0.45095700  0.41593600  0.56388300
   0.44028400  0.60643000  0.60524300
   0.54179100  0.45744600  0.39613600
   0.53111600  0.64794100  0.43749600
   0.38461900  0.51474100  0.55243500
   0.61299700  0.52481700  0.56496600
   0.41490100  0.35665000  0.52940300
   0.46117000  0.40042600  0.63910800
   0.60034800  0.36907000  0.51957800
   0.68182700  0.53600700  0.53118700
   0.62280400  0.50903400  0.64018900
   0.61080000  0.46880600  0.36278200
   0.50550800  0.39805500  0.36207700
   0.46538400  0.57201900  0.30946400
   0.58275500  0.68306700  0.58775000
   0.45052500  0.59044300  0.68036400
   0.39732000  0.67044900  0.59753500
   0.31566200  0.50359800  0.58596500
   0.33322800  0.47946500  0.40225200
   0.32629100  0.60324700  0.42912600
   0.48792300  0.71185500  0.43020800
   0.60015100  0.65882400  0.40403700
 
 position of ions in cartesian coordinates  (Angst):
   9.50942000 11.12520000  7.69306000
   7.38156000 10.78120000  8.72824000
  11.14736000  8.66220000 10.24300000
  10.93384000 12.47288000 11.07036000
   9.01914000  8.31872000 11.27766000
   8.80568000 12.12860000 12.10486000
  10.83582000  9.14892000  7.92272000
  10.62232000 12.95882000  8.74992000
   7.69238000 10.29482000 11.04870000
  12.25994000 10.49634000 11.29932000
   8.29802000  7.13300000 10.58806000
   9.22340000  8.00852000 12.78216000
  12.00696000  7.38140000 10.39156000
  13.63654000 10.72014000 10.62374000
  12.45608000 10.18068000 12.80378000
  12.21600000  9.37612000  7.25564000
  10.11016000  7.96110000  7.24154000
   9.30768000 11.44038000  6.18928000
  11.65510000 13.66134000 11.75500000
   9.01050000 11.80886000 13.60728000
   7.94640000 13.40898000 11.95070000
   6.31324000 10.07196000 11.71930000
   6.66456000  9.58930000  8.04504000
   6.52582000 12.06494000  8.58252000
   9.75846000 14.23710000  8.60416000
  12.00302000 13.17648000  8.08074000
 


--------------------------------------------------------------------------------------------------------


 k-point  1 :   0.0000 0.0000 0.0000  plane waves:  145165

 maximum and minimum number of plane-waves per node :     24209    24180

 maximum number of plane-waves:    145165
 maximum index in each direction: 
   IXMAX=   32   IYMAX=   32   IZMAX=   32
   IXMIN=  -32   IYMIN=  -32   IZMIN=  -32


 parallel 3D FFT for wavefunctions:
    minimum data exchange during FFTs selected (reduces bandwidth)
 parallel 3D FFT for charge:
    minimum data exchange during FFTs selected (reduces bandwidth)


 total amount of memory used by VASP MPI-rank0   131440. kBytes
=======================================================================

   base      :      30000. kBytes
   nonl-proj :      17624. kBytes
   fftplans  :      26957. kBytes
   grid      :      48673. kBytes
   one-center:         40. kBytes
   wavefun   :       8146. kBytes
 
     INWAV:  cpu time    0.0000: real time    0.0000
 Broyden mixing: mesh for mixing (old mesh)
   NGX = 65   NGY = 65   NGZ = 65
  (NGX  =196   NGY  =196   NGZ  =196)
  gives a total of 274625 points

 initial charge density was supplied:
 charge density of overlapping atoms calculated
 number of electron      56.0000000 magnetization 
 keeping initial charge density in first step


--------------------------------------------------------------------------------------------------------


 Maximum index for augmentation-charges          565 (set IRDMAX)


--------------------------------------------------------------------------------------------------------


 First call to EWALD:  gamma=   0.089
 Maximum number of real-space cells 3x 3x 3
 Maximum number of reciprocal cells 3x 3x 3

    FEWALD:  cpu time    0.0030: real time    0.0029


--------------------------------------- Iteration      1(   1)  ---------------------------------------


    POTLOK:  cpu time    1.7677: real time    1.7697
    SETDIJ:  cpu time    0.0070: real time    0.0075
     EDDAV:  cpu time   10.9433: real time   10.9398
       DOS:  cpu time    0.0010: real time    0.0003
    --------------------------------------------
      LOOP:  cpu time   12.7191: real time   12.7173

 eigenvalue-minimisations  :   116
 total energy-change (2. order) : 0.2009100E+03  (-0.1049125E+04)
 number of electron      56.0000000 magnetization 
 augmentation part       56.0000000 magnetization 

 Free energy of the ion-electron system (eV)
  ---------------------------------------------------
  alpha Z        PSCENC =         1.96423985
  Ewald energy   TEWEN  =      2629.98113996
  -Hartree energ DENC   =     -3442.43976248
  -exchange      EXHF   =         0.00000000
  -V(xc)+E(xc)   XCENC  =       -53.18523898
  PAW double counting   =       915.46801746     -752.10009045
  entropy T*S    EENTRO =        -0.43136786
  eigenvalues    EBANDS =      -336.38223662
  atomic energy  EATOM  =      1238.03527989
  Solvation  Ediel_sol  =         0.00000000
  ---------------------------------------------------
  free energy    TOTEN  =       200.90998077 eV

  energy without entropy =      201.34134863  energy(sigma->0) =      201.12566470


--------------------------------------------------------------------------------------------------------




--------------------------------------- Iteration      1(   2)  ---------------------------------------


     EDDAV:  cpu time   12.4811: real time   12.5287
       DOS:  cpu time    0.0000: real time    0.0002
    --------------------------------------------
      LOOP:  cpu time   12.4811: real time   12.5290

 eigenvalue-minimisations  :   136
 total energy-change (2. order) :-0.2281410E+03  (-0.2140539E+03)
 number of electron      56.0000000 magnetization 
 augmentation part       56.0000000 magnetization 

 Free energy of the ion-electron system (eV)
  ---------------------------------------------------
  alpha Z        PSCENC =         1.96423985
  Ewald energy   TEWEN  =      2629.98113996
  -Hartree energ DENC   =     -3442.43976248
  -exchange      EXHF   =         0.00000000
  -V(xc)+E(xc)   XCENC  =       -53.18523898
  PAW double counting   =       915.46801746     -752.10009045
  entropy T*S    EENTRO =        -0.00000000
  eigenvalues    EBANDS =      -564.95464312
  atomic energy  EATOM  =      1238.03527989
  Solvation  Ediel_sol  =         0.00000000
  ---------------------------------------------------
  free energy    TOTEN  =       -27.23105787 eV

  energy without entropy =      -27.23105787  energy(sigma->0) =      -27.23105787


--------------------------------------------------------------------------------------------------------




--------------------------------------- Iteration      1(   3)  ---------------------------------------


     EDDAV:  cpu time   10.7324: real time   10.9201
       DOS:  cpu time    0.0010: real time    0.0003
    --------------------------------------------
      LOOP:  cpu time   10.7334: real time   10.9203

 eigenvalue-minimisations  :   112
 total energy-change (2. order) :-0.7540770E+02  (-0.7522918E+02)
 number of electron      56.0000000 magnetization 
 augmentation part       56.0000000 magnetization 

 Free energy of the ion-electron system (eV)
  ---------------------------------------------------
  alpha Z        PSCENC =         1.96423985
  Ewald energy   TEWEN  =      2629.98113996
  -Hartree energ DENC   =     -3442.43976248
  -exchange      EXHF   =         0.00000000
  -V(xc)+E(xc)   XCENC  =       -53.18523898
  PAW double counting   =       915.46801746     -752.10009045
  entropy T*S    EENTRO =        -0.00000000
  eigenvalues    EBANDS =      -640.36233968
  atomic energy  EATOM  =      1238.03527989
  Solvation  Ediel_sol  =         0.00000000
  ---------------------------------------------------
  free energy    TOTEN  =      -102.63875443 eV

  energy without entropy =     -102.63875443  energy(sigma->0) =     -102.63875443


--------------------------------------------------------------------------------------------------------




--------------------------------------- Iteration      1(   4)  ---------------------------------------


     EDDAV:  cpu time   10.0415: real time   10.0392
       DOS:  cpu time    0.0000: real time    0.0002
    --------------------------------------------
      LOOP:  cpu time   10.0415: real time   10.0394

 eigenvalue-minimisations  :   104
 total energy-change (2. order) :-0.4338114E+01  (-0.4323392E+01)
 number of electron      56.0000000 magnetization 
 augmentation part       56.0000000 magnetization 

 Free energy of the ion-electron system (eV)
  ---------------------------------------------------
  alpha Z        PSCENC =         1.96423985
  Ewald energy   TEWEN  =      2629.98113996
  -Hartree energ DENC   =     -3442.43976248
  -exchange      EXHF   =         0.00000000
  -V(xc)+E(xc)   XCENC  =       -53.18523898
  PAW double counting   =       915.46801746     -752.10009045
  entropy T*S    EENTRO =        -0.00000000
  eigenvalues    EBANDS =      -644.70045383
  atomic energy  EATOM  =      1238.03527989
  Solvation  Ediel_sol  =         0.00000000
  ---------------------------------------------------
  free energy    TOTEN  =      -106.97686858 eV

  energy without entropy =     -106.97686858  energy(sigma->0) =     -106.97686858


--------------------------------------------------------------------------------------------------------




--------------------------------------- Iteration      1(   5)  ---------------------------------------


     EDDAV:  cpu time   12.4191: real time   12.4161
       DOS:  cpu time    0.0010: real time    0.0003
    CHARGE:  cpu time    0.4879: real time    0.4887
    MIXING:  cpu time    0.0430: real time    0.0426
    --------------------------------------------
      LOOP:  cpu time   12.9510: real time   12.9477

 eigenvalue-minimisations  :   136
 total energy-change (2. order) :-0.8308261E-01  (-0.8301491E-01)
 number of electron      56.0000011 magnetization 
 augmentation part       -3.5355629 magnetization 

 Broyden mixing:
  rms(total) = 0.15007E+01    rms(broyden)= 0.15006E+01
  rms(prec ) = 0.15969E+01
  weight for this iteration     100.00

 Free energy of the ion-electron system (eV)
  ---------------------------------------------------
  alpha Z        PSCENC =         1.96423985
  Ewald energy   TEWEN  =      2629.98113996
  -Hartree energ DENC   =     -3442.43976248
  -exchange      EXHF   =         0.00000000
  -V(xc)+E(xc)   XCENC  =       -53.18523898
  PAW double counting   =       915.46801746     -752.10009045
  entropy T*S    EENTRO =        -0.00000000
  eigenvalues    EBANDS =      -644.78353643
  atomic energy  EATOM  =      1238.03527989
  Solvation  Ediel_sol  =         0.00000000
  ---------------------------------------------------
  free energy    TOTEN  =      -107.05995118 eV

  energy without entropy =     -107.05995118  energy(sigma->0) =     -107.05995118


--------------------------------------------------------------------------------------------------------




--------------------------------------- Iteration      1(   6)  ---------------------------------------


    POTLOK:  cpu time    1.7007: real time    1.7021
    SETDIJ:  cpu time    0.0160: real time    0.0164
     EDDAV:  cpu time   10.0335: real time   10.0311
       DOS:  cpu time    0.0010: real time    0.0003
    CHARGE:  cpu time    0.4839: real time    0.4841
    MIXING:  cpu time    0.0450: real time    0.0451
    --------------------------------------------
      LOOP:  cpu time   12.2801: real time   12.2791

 eigenvalue-minimisations  :   104
 total energy-change (2. order) : 0.3217625E+01  (-0.1586930E+00)
 number of electron      56.0000010 magnetization 
 augmentation part       -3.5374982 magnetization 

 Broyden mixing:
  rms(total) = 0.87129E+00    rms(broyden)= 0.87129E+00
  rms(prec ) = 0.92989E+00
  weight for this iteration     100.00

 eigenvalues of (default mixing * dielectric matrix)
  average eigenvalue GAMMA=   2.3121
  2.3121

 Free energy of the ion-electron system (eV)
  ---------------------------------------------------
  alpha Z        PSCENC =         1.96423985
  Ewald energy   TEWEN  =      2629.98113996
  -Hartree energ DENC   =     -3473.87101026
  -exchange      EXHF   =         0.00000000
  -V(xc)+E(xc)   XCENC  =       -49.55006498
  PAW double counting   =      1840.10457227    -1677.51401512
  entropy T*S    EENTRO =        -0.00000000
  eigenvalues    EBANDS =      -612.99246820
  atomic energy  EATOM  =      1238.03527989
  Solvation  Ediel_sol  =         0.00000000
  ---------------------------------------------------
  free energy    TOTEN  =      -103.84232659 eV

  energy without entropy =     -103.84232659  energy(sigma->0) =     -103.84232659


--------------------------------------------------------------------------------------------------------




--------------------------------------- Iteration      1(   7)  ---------------------------------------


    POTLOK:  cpu time    1.7037: real time    1.7043
    SETDIJ:  cpu time    0.0080: real time    0.0075
     EDDAV:  cpu time   10.5714: real time   10.6054
       DOS:  cpu time    0.0010: real time    0.0005
    CHARGE:  cpu time    0.4939: real time    0.4935
    MIXING:  cpu time    0.0460: real time    0.0461
    --------------------------------------------
      LOOP:  cpu time   12.8241: real time   12.8572

 eigenvalue-minimisations  :   112
 total energy-change (2. order) : 0.1691781E+01  (-0.4093940E+00)
 number of electron      56.0000009 magnetization 
 augmentation part       -3.5379219 magnetization 

 Broyden mixing:
  rms(total) = 0.12246E+00    rms(broyden)= 0.12231E+00
  rms(prec ) = 0.15333E+00
  weight for this iteration     100.00

 eigenvalues of (default mixing * dielectric matrix)
  average eigenvalue GAMMA=   1.8369
  1.6660  2.0078

 Free energy of the ion-electron system (eV)
  ---------------------------------------------------
  alpha Z        PSCENC =         1.96423985
  Ewald energy   TEWEN  =      2629.98113996
  -Hartree energ DENC   =     -3529.96243598
  -exchange      EXHF   =         0.00000000
  -V(xc)+E(xc)   XCENC  =       -43.77011875
  PAW double counting   =      3888.70204682    -3727.15287149
  entropy T*S    EENTRO =        -0.00000000
  eigenvalues    EBANDS =      -559.94782564
  atomic energy  EATOM  =      1238.03527989
  Solvation  Ediel_sol  =         0.00000000
  ---------------------------------------------------
  free energy    TOTEN  =      -102.15054533 eV

  energy without entropy =     -102.15054533  energy(sigma->0) =     -102.15054533


--------------------------------------------------------------------------------------------------------




--------------------------------------- Iteration      1(   8)  ---------------------------------------


    POTLOK:  cpu time    1.7077: real time    1.7219
    SETDIJ:  cpu time    0.0080: real time    0.0078
     EDDAV:  cpu time   10.0405: real time   10.0489
       DOS:  cpu time    0.0000: real time    0.0004
    CHARGE:  cpu time    0.4929: real time    0.4931
    MIXING:  cpu time    0.0490: real time    0.0486
    --------------------------------------------
      LOOP:  cpu time   12.2981: real time   12.3207

 eigenvalue-minimisations  :   104
 total energy-change (2. order) : 0.5143282E-01  (-0.2610009E-01)
 number of electron      56.0000009 magnetization 
 augmentation part       -3.5342171 magnetization 

 Broyden mixing:
  rms(total) = 0.61575E-01    rms(broyden)= 0.61560E-01
  rms(prec ) = 0.81031E-01
  weight for this iteration     100.00

 eigenvalues of (default mixing * dielectric matrix)
  average eigenvalue GAMMA=   1.9854
  2.6350  1.6606  1.6606

 Free energy of the ion-electron system (eV)
  ---------------------------------------------------
  alpha Z        PSCENC =         1.96423985
  Ewald energy   TEWEN  =      2629.98113996
  -Hartree energ DENC   =     -3537.72060714
  -exchange      EXHF   =         0.00000000
  -V(xc)+E(xc)   XCENC  =       -43.80961059
  PAW double counting   =      3909.09236929    -3747.45286458
  entropy T*S    EENTRO =        -0.00000000
  eigenvalues    EBANDS =      -552.18905919
  atomic energy  EATOM  =      1238.03527989
  Solvation  Ediel_sol  =         0.00000000
  ---------------------------------------------------
  free energy    TOTEN  =      -102.09911251 eV

  energy without entropy =     -102.09911251  energy(sigma->0) =     -102.09911251


--------------------------------------------------------------------------------------------------------




--------------------------------------- Iteration      1(   9)  ---------------------------------------


    POTLOK:  cpu time    1.7137: real time    1.7135
    SETDIJ:  cpu time    0.0080: real time    0.0079
     EDDAV:  cpu time   11.9032: real time   11.8988
       DOS:  cpu time    0.0010: real time    0.0006
    CHARGE:  cpu time    0.4869: real time    0.4861
    MIXING:  cpu time    0.0510: real time    0.0511
    --------------------------------------------
      LOOP:  cpu time   14.1638: real time   14.1580

 eigenvalue-minimisations  :   128
 total energy-change (2. order) : 0.3541249E-01  (-0.7687896E-02)
 number of electron      56.0000009 magnetization 
 augmentation part       -3.5213452 magnetization 

 Broyden mixing:
  rms(total) = 0.34050E-01    rms(broyden)= 0.34049E-01
  rms(prec ) = 0.45374E-01
  weight for this iteration     100.00

 eigenvalues of (default mixing * dielectric matrix)
  average eigenvalue GAMMA=   1.7392
  2.5075  1.8360  1.8360  0.7772

 Free energy of the ion-electron system (eV)
  ---------------------------------------------------
  alpha Z        PSCENC =         1.96423985
  Ewald energy   TEWEN  =      2629.98113996
  -Hartree energ DENC   =     -3549.55867205
  -exchange      EXHF   =         0.00000000
  -V(xc)+E(xc)   XCENC  =       -43.13282571
  PAW double counting   =      4034.52129313    -3872.91004919
  entropy T*S    EENTRO =        -0.00000000
  eigenvalues    EBANDS =      -540.96410590
  atomic energy  EATOM  =      1238.03527989
  Solvation  Ediel_sol  =         0.00000000
  ---------------------------------------------------
  free energy    TOTEN  =      -102.06370002 eV

  energy without entropy =     -102.06370002  energy(sigma->0) =     -102.06370002


--------------------------------------------------------------------------------------------------------




--------------------------------------- Iteration      1(  10)  ---------------------------------------


    POTLOK:  cpu time    1.7247: real time    1.7250
    SETDIJ:  cpu time    0.0070: real time    0.0075
     EDDAV:  cpu time   10.6564: real time   10.6535
       DOS:  cpu time    0.0000: real time    0.0005
    CHARGE:  cpu time    0.4839: real time    0.4834
    MIXING:  cpu time    0.0550: real time    0.0554
    --------------------------------------------
      LOOP:  cpu time   12.9270: real time   12.9253

 eigenvalue-minimisations  :   112
 total energy-change (2. order) :-0.2475753E-03  (-0.2894738E-03)
 number of electron      56.0000009 magnetization 
 augmentation part       -3.5204185 magnetization 

 Broyden mixing:
  rms(total) = 0.16067E-01    rms(broyden)= 0.16067E-01
  rms(prec ) = 0.29140E-01
  weight for this iteration     100.00

 eigenvalues of (default mixing * dielectric matrix)
  average eigenvalue GAMMA=   1.8856
  2.8234  2.2104  1.0616  1.6663  1.6663

 Free energy of the ion-electron system (eV)
  ---------------------------------------------------
  alpha Z        PSCENC =         1.96423985
  Ewald energy   TEWEN  =      2629.98113996
  -Hartree energ DENC   =     -3551.58628461
  -exchange      EXHF   =         0.00000000
  -V(xc)+E(xc)   XCENC  =       -43.13141922
  PAW double counting   =      3956.63804424    -3794.98198552
  entropy T*S    EENTRO =        -0.00000000
  eigenvalues    EBANDS =      -538.98296219
  atomic energy  EATOM  =      1238.03527989
  Solvation  Ediel_sol  =         0.00000000
  ---------------------------------------------------
  free energy    TOTEN  =      -102.06394760 eV

  energy without entropy =     -102.06394760  energy(sigma->0) =     -102.06394760


--------------------------------------------------------------------------------------------------------




--------------------------------------- Iteration      1(  11)  ---------------------------------------


    POTLOK:  cpu time    1.7327: real time    1.7328
    SETDIJ:  cpu time    0.0080: real time    0.0076
     EDDAV:  cpu time   10.0775: real time   10.0782
       DOS:  cpu time    0.0000: real time    0.0003
    CHARGE:  cpu time    0.4859: real time    0.4859
    MIXING:  cpu time    0.0560: real time    0.0562
    --------------------------------------------
      LOOP:  cpu time   12.3601: real time   12.3610

 eigenvalue-minimisations  :   104
 total energy-change (2. order) : 0.2473962E-03  (-0.7102934E-03)
 number of electron      56.0000009 magnetization 
 augmentation part       -3.5195887 magnetization 

 Broyden mixing:
  rms(total) = 0.80747E-02    rms(broyden)= 0.80744E-02
  rms(prec ) = 0.14396E-01
  weight for this iteration     100.00

 eigenvalues of (default mixing * dielectric matrix)
  average eigenvalue GAMMA=   1.8629
  3.1885  2.5723  1.7499  1.7499  1.0261  0.8910

 Free energy of the ion-electron system (eV)
  ---------------------------------------------------
  alpha Z        PSCENC =         1.96423985
  Ewald energy   TEWEN  =      2629.98113996
  -Hartree energ DENC   =     -3558.60352911
  -exchange      EXHF   =         0.00000000
  -V(xc)+E(xc)   XCENC  =       -42.93240923
  PAW double counting   =      3911.75272094    -3750.05238713
  entropy T*S    EENTRO =        -0.00000000
  eigenvalues    EBANDS =      -532.20875538
  atomic energy  EATOM  =      1238.03527989
  Solvation  Ediel_sol  =         0.00000000
  ---------------------------------------------------
  free energy    TOTEN  =      -102.06370020 eV

  energy without entropy =     -102.06370020  energy(sigma->0) =     -102.06370020


--------------------------------------------------------------------------------------------------------




--------------------------------------- Iteration      1(  12)  ---------------------------------------


    POTLOK:  cpu time    1.7377: real time    1.7367
    SETDIJ:  cpu time    0.0080: real time    0.0079
     EDDAV:  cpu time   10.0905: real time   10.0873
       DOS:  cpu time    0.0000: real time    0.0003
    CHARGE:  cpu time    0.4839: real time    0.4840
    MIXING:  cpu time    0.0600: real time    0.0597
    --------------------------------------------
      LOOP:  cpu time   12.3801: real time   12.3759

 eigenvalue-minimisations  :   104
 total energy-change (2. order) :-0.4201978E-02  (-0.8990360E-04)
 number of electron      56.0000009 magnetization 
 augmentation part       -3.5193435 magnetization 

 Broyden mixing:
  rms(total) = 0.58218E-02    rms(broyden)= 0.58218E-02
  rms(prec ) = 0.10100E-01
  weight for this iteration     100.00

 eigenvalues of (default mixing * dielectric matrix)
  average eigenvalue GAMMA=   2.0429
  4.3596  2.5808  2.2629  1.5791  1.5791  0.9693  0.9693

 Free energy of the ion-electron system (eV)
  ---------------------------------------------------
  alpha Z        PSCENC =         1.96423985
  Ewald energy   TEWEN  =      2629.98113996
  -Hartree energ DENC   =     -3560.70059791
  -exchange      EXHF   =         0.00000000
  -V(xc)+E(xc)   XCENC  =       -42.89927645
  PAW double counting   =      3903.11971860    -3741.41647665
  entropy T*S    EENTRO =        -0.00000000
  eigenvalues    EBANDS =      -530.15192947
  atomic energy  EATOM  =      1238.03527989
  Solvation  Ediel_sol  =         0.00000000
  ---------------------------------------------------
  free energy    TOTEN  =      -102.06790218 eV

  energy without entropy =     -102.06790218  energy(sigma->0) =     -102.06790218


--------------------------------------------------------------------------------------------------------




--------------------------------------- Iteration      1(  13)  ---------------------------------------


    POTLOK:  cpu time    1.7417: real time    1.7552
    SETDIJ:  cpu time    0.0080: real time    0.0076
     EDDAV:  cpu time   10.0785: real time   10.0747
       DOS:  cpu time    0.0000: real time    0.0003
    CHARGE:  cpu time    0.4909: real time    0.4899
    MIXING:  cpu time    0.0640: real time    0.0636
    --------------------------------------------
      LOOP:  cpu time   12.3831: real time   12.3914

 eigenvalue-minimisations  :   104
 total energy-change (2. order) :-0.4744027E-02  (-0.1841279E-03)
 number of electron      56.0000009 magnetization 
 augmentation part       -3.5190595 magnetization 

 Broyden mixing:
  rms(total) = 0.33648E-02    rms(broyden)= 0.33646E-02
  rms(prec ) = 0.51717E-02
  weight for this iteration     100.00

 eigenvalues of (default mixing * dielectric matrix)
  average eigenvalue GAMMA=   2.1906
  5.6515  2.8628  2.4107  1.7957  1.7957  1.0663  0.9710  0.9710

 Free energy of the ion-electron system (eV)
  ---------------------------------------------------
  alpha Z        PSCENC =         1.96423985
  Ewald energy   TEWEN  =      2629.98113996
  -Hartree energ DENC   =     -3563.54466116
  -exchange      EXHF   =         0.00000000
  -V(xc)+E(xc)   XCENC  =       -42.84770913
  PAW double counting   =      3908.88474137    -3747.18938676
  entropy T*S    EENTRO =        -0.00000000
  eigenvalues    EBANDS =      -527.35629022
  atomic energy  EATOM  =      1238.03527989
  Solvation  Ediel_sol  =         0.00000000
  ---------------------------------------------------
  free energy    TOTEN  =      -102.07264621 eV

  energy without entropy =     -102.07264621  energy(sigma->0) =     -102.07264621


--------------------------------------------------------------------------------------------------------




--------------------------------------- Iteration      1(  14)  ---------------------------------------


    POTLOK:  cpu time    1.7317: real time    1.7310
    SETDIJ:  cpu time    0.0070: real time    0.0078
     EDDAV:  cpu time   10.6794: real time   10.6761
       DOS:  cpu time    0.0010: real time    0.0003
    CHARGE:  cpu time    0.4779: real time    0.4784
    MIXING:  cpu time    0.0730: real time    0.0731
    --------------------------------------------
      LOOP:  cpu time   12.9700: real time   12.9667

 eigenvalue-minimisations  :   112
 total energy-change (2. order) :-0.3873483E-02  (-0.3282591E-04)
 number of electron      56.0000009 magnetization 
 augmentation part       -3.5185113 magnetization 

 Broyden mixing:
  rms(total) = 0.15798E-02    rms(broyden)= 0.15798E-02
  rms(prec ) = 0.28002E-02
  weight for this iteration     100.00

 eigenvalues of (default mixing * dielectric matrix)
  average eigenvalue GAMMA=   2.3010
  6.5572  2.8919  2.8919  1.9916  1.6754  1.6754  1.1272  0.9492  0.9492

 Free energy of the ion-electron system (eV)
  ---------------------------------------------------
  alpha Z        PSCENC =         1.96423985
  Ewald energy   TEWEN  =      2629.98113996
  -Hartree energ DENC   =     -3564.34035138
  -exchange      EXHF   =         0.00000000
  -V(xc)+E(xc)   XCENC  =       -42.85524049
  PAW double counting   =      3909.47150784    -3747.77820499
  entropy T*S    EENTRO =        -0.00000000
  eigenvalues    EBANDS =      -526.55489037
  atomic energy  EATOM  =      1238.03527989
  Solvation  Ediel_sol  =         0.00000000
  ---------------------------------------------------
  free energy    TOTEN  =      -102.07651969 eV

  energy without entropy =     -102.07651969  energy(sigma->0) =     -102.07651969


--------------------------------------------------------------------------------------------------------




--------------------------------------- Iteration      1(  15)  ---------------------------------------


    POTLOK:  cpu time    1.7277: real time    1.7263
    SETDIJ:  cpu time    0.0070: real time    0.0076
     EDDAV:  cpu time   10.6684: real time   10.6636
       DOS:  cpu time    0.0000: real time    0.0004
    CHARGE:  cpu time    0.4909: real time    0.4907
    MIXING:  cpu time    0.0770: real time    0.0770
    --------------------------------------------
      LOOP:  cpu time   12.9710: real time   12.9655

 eigenvalue-minimisations  :   112
 total energy-change (2. order) :-0.4569388E-02  (-0.5553765E-04)
 number of electron      56.0000009 magnetization 
 augmentation part       -3.5183172 magnetization 

 Broyden mixing:
  rms(total) = 0.14997E-02    rms(broyden)= 0.14997E-02
  rms(prec ) = 0.19407E-02
  weight for this iteration     100.00

 eigenvalues of (default mixing * dielectric matrix)
  average eigenvalue GAMMA=   2.2896
  6.7107  3.6836  2.5548  2.0335  1.8970  1.8970  1.2204  0.9457  0.9766  0.9766

 Free energy of the ion-electron system (eV)
  ---------------------------------------------------
  alpha Z        PSCENC =         1.96423985
  Ewald energy   TEWEN  =      2629.98113996
  -Hartree energ DENC   =     -3564.57098402
  -exchange      EXHF   =         0.00000000
  -V(xc)+E(xc)   XCENC  =       -42.86526660
  PAW double counting   =      3913.54817987    -3751.85457564
  entropy T*S    EENTRO =        -0.00000000
  eigenvalues    EBANDS =      -526.31910239
  atomic energy  EATOM  =      1238.03527989
  Solvation  Ediel_sol  =         0.00000000
  ---------------------------------------------------
  free energy    TOTEN  =      -102.08108908 eV

  energy without entropy =     -102.08108908  energy(sigma->0) =     -102.08108908


--------------------------------------------------------------------------------------------------------




--------------------------------------- Iteration      1(  16)  ---------------------------------------


    POTLOK:  cpu time    1.7207: real time    1.7217
    SETDIJ:  cpu time    0.0080: real time    0.0076
     EDDAV:  cpu time   10.6744: real time   10.6778
       DOS:  cpu time    0.0000: real time    0.0003
    CHARGE:  cpu time    0.5019: real time    0.5005
    MIXING:  cpu time    0.0840: real time    0.0849
    --------------------------------------------
      LOOP:  cpu time   12.9900: real time   12.9927

 eigenvalue-minimisations  :   112
 total energy-change (2. order) :-0.1035596E-02  (-0.5101873E-05)
 number of electron      56.0000009 magnetization 
 augmentation part       -3.5185261 magnetization 

 Broyden mixing:
  rms(total) = 0.60774E-03    rms(broyden)= 0.60774E-03
  rms(prec ) = 0.96525E-03
  weight for this iteration     100.00

 eigenvalues of (default mixing * dielectric matrix)
  average eigenvalue GAMMA=   2.4299
  7.4338  4.7571  2.6451  2.6451  1.8134  1.8134  1.3669  1.3669  0.9588  0.9588
  0.9699

 Free energy of the ion-electron system (eV)
  ---------------------------------------------------
  alpha Z        PSCENC =         1.96423985
  Ewald energy   TEWEN  =      2629.98113996
  -Hartree energ DENC   =     -3564.65578030
  -exchange      EXHF   =         0.00000000
  -V(xc)+E(xc)   XCENC  =       -42.86479180
  PAW double counting   =      3912.54394975    -3750.84878996
  entropy T*S    EENTRO =        -0.00000000
  eigenvalues    EBANDS =      -526.23737206
  atomic energy  EATOM  =      1238.03527989
  Solvation  Ediel_sol  =         0.00000000
  ---------------------------------------------------
  free energy    TOTEN  =      -102.08212467 eV

  energy without entropy =     -102.08212467  energy(sigma->0) =     -102.08212467


--------------------------------------------------------------------------------------------------------




--------------------------------------- Iteration      1(  17)  ---------------------------------------


    POTLOK:  cpu time    1.7197: real time    1.7197
    SETDIJ:  cpu time    0.0080: real time    0.0075
     EDDAV:  cpu time   10.0675: real time   10.0631
       DOS:  cpu time    0.0000: real time    0.0003
    CHARGE:  cpu time    0.4969: real time    0.4970
    MIXING:  cpu time    0.0990: real time    0.0988
    --------------------------------------------
      LOOP:  cpu time   12.3901: real time   12.3863

 eigenvalue-minimisations  :   104
 total energy-change (2. order) :-0.1090974E-02  (-0.9671531E-05)
 number of electron      56.0000009 magnetization 
 augmentation part       -3.5186752 magnetization 

 Broyden mixing:
  rms(total) = 0.34246E-03    rms(broyden)= 0.34243E-03
  rms(prec ) = 0.48011E-03
  weight for this iteration     100.00

 eigenvalues of (default mixing * dielectric matrix)
  average eigenvalue GAMMA=   2.3771
  7.5539  4.9362  2.6699  2.6699  1.9154  1.9154  1.4931  1.4931  0.9892  0.9892
  0.9498  0.9498

 Free energy of the ion-electron system (eV)
  ---------------------------------------------------
  alpha Z        PSCENC =         1.96423985
  Ewald energy   TEWEN  =      2629.98113996
  -Hartree energ DENC   =     -3564.68562582
  -exchange      EXHF   =         0.00000000
  -V(xc)+E(xc)   XCENC  =       -42.86694208
  PAW double counting   =      3911.28253426    -3749.58628105
  entropy T*S    EENTRO =        -0.00000000
  eigenvalues    EBANDS =      -526.20756065
  atomic energy  EATOM  =      1238.03527989
  Solvation  Ediel_sol  =         0.00000000
  ---------------------------------------------------
  free energy    TOTEN  =      -102.08321565 eV

  energy without entropy =     -102.08321565  energy(sigma->0) =     -102.08321565


--------------------------------------------------------------------------------------------------------




--------------------------------------- Iteration      1(  18)  ---------------------------------------


    POTLOK:  cpu time    1.7487: real time    1.7504
    SETDIJ:  cpu time    0.0080: real time    0.0076
     EDDAV:  cpu time   10.0345: real time   10.0308
       DOS:  cpu time    0.0000: real time    0.0003
    CHARGE:  cpu time    0.4909: real time    0.4908
    MIXING:  cpu time    0.1070: real time    0.1073
    --------------------------------------------
      LOOP:  cpu time   12.3891: real time   12.3871

 eigenvalue-minimisations  :   104
 total energy-change (2. order) :-0.2610135E-03  (-0.7731222E-06)
 number of electron      56.0000009 magnetization 
 augmentation part       -3.5186506 magnetization 

 Broyden mixing:
  rms(total) = 0.19726E-03    rms(broyden)= 0.19724E-03
  rms(prec ) = 0.28842E-03
  weight for this iteration     100.00

 eigenvalues of (default mixing * dielectric matrix)
  average eigenvalue GAMMA=   2.4900
  8.1569  5.7577  3.2024  2.5886  2.4128  1.7855  1.7855  1.3935  1.3935  0.9902
  0.9902  0.9569  0.9569

 Free energy of the ion-electron system (eV)
  ---------------------------------------------------
  alpha Z        PSCENC =         1.96423985
  Ewald energy   TEWEN  =      2629.98113996
  -Hartree energ DENC   =     -3564.71074214
  -exchange      EXHF   =         0.00000000
  -V(xc)+E(xc)   XCENC  =       -42.86692839
  PAW double counting   =      3910.94534822    -3749.24966071
  entropy T*S    EENTRO =        -0.00000000
  eigenvalues    EBANDS =      -526.18215332
  atomic energy  EATOM  =      1238.03527989
  Solvation  Ediel_sol  =         0.00000000
  ---------------------------------------------------
  free energy    TOTEN  =      -102.08347666 eV

  energy without entropy =     -102.08347666  energy(sigma->0) =     -102.08347666


--------------------------------------------------------------------------------------------------------




--------------------------------------- Iteration      1(  19)  ---------------------------------------


    POTLOK:  cpu time    1.7307: real time    1.7297
    SETDIJ:  cpu time    0.0070: real time    0.0075
     EDDAV:  cpu time    9.4686: real time    9.4658
       DOS:  cpu time    0.0000: real time    0.0003
    CHARGE:  cpu time    0.4859: real time    0.4854
    MIXING:  cpu time    0.1180: real time    0.1188
    --------------------------------------------
      LOOP:  cpu time   11.8102: real time   11.8074

 eigenvalue-minimisations  :    96
 total energy-change (2. order) :-0.1923473E-03  (-0.8076021E-06)
 number of electron      56.0000009 magnetization 
 augmentation part       -3.5186808 magnetization 

 Broyden mixing:
  rms(total) = 0.19348E-03    rms(broyden)= 0.19347E-03
  rms(prec ) = 0.22956E-03
  weight for this iteration     100.00

 eigenvalues of (default mixing * dielectric matrix)
  average eigenvalue GAMMA=   2.4766
  8.2995  6.1210  3.3403  2.6574  2.1042  1.9024  1.9024  1.6428  1.6428  1.2116
  0.9905  0.9905  0.9335  0.9335

 Free energy of the ion-electron system (eV)
  ---------------------------------------------------
  alpha Z        PSCENC =         1.96423985
  Ewald energy   TEWEN  =      2629.98113996
  -Hartree energ DENC   =     -3564.73384732
  -exchange      EXHF   =         0.00000000
  -V(xc)+E(xc)   XCENC  =       -42.86525180
  PAW double counting   =      3910.92108224    -3749.22569807
  entropy T*S    EENTRO =        -0.00000000
  eigenvalues    EBANDS =      -526.16061375
  atomic energy  EATOM  =      1238.03527989
  Solvation  Ediel_sol  =         0.00000000
  ---------------------------------------------------
  free energy    TOTEN  =      -102.08366901 eV

  energy without entropy =     -102.08366901  energy(sigma->0) =     -102.08366901


--------------------------------------------------------------------------------------------------------




--------------------------------------- Iteration      1(  20)  ---------------------------------------


    POTLOK:  cpu time    1.7257: real time    1.7245
    SETDIJ:  cpu time    0.0070: real time    0.0076
     EDDAV:  cpu time    8.8926: real time    8.8891
       DOS:  cpu time    0.0000: real time    0.0003
    CHARGE:  cpu time    0.4869: real time    0.4862
    MIXING:  cpu time    0.1300: real time    0.1298
    --------------------------------------------
      LOOP:  cpu time   11.2423: real time   11.2374

 eigenvalue-minimisations  :    88
 total energy-change (2. order) :-0.4729615E-04  (-0.8712956E-07)
 number of electron      56.0000009 magnetization 
 augmentation part       -3.5186678 magnetization 

 Broyden mixing:
  rms(total) = 0.46027E-04    rms(broyden)= 0.46025E-04
  rms(prec ) = 0.74863E-04
  weight for this iteration     100.00

 eigenvalues of (default mixing * dielectric matrix)
  average eigenvalue GAMMA=   2.5314
  8.6733  6.3771  4.0923  2.8474  2.5568  1.8162  1.8162  1.8908  1.4215  1.4215
  1.2377  0.9756  0.9756  0.9651  0.9037

 Free energy of the ion-electron system (eV)
  ---------------------------------------------------
  alpha Z        PSCENC =         1.96423985
  Ewald energy   TEWEN  =      2629.98113996
  -Hartree energ DENC   =     -3564.73663888
  -exchange      EXHF   =         0.00000000
  -V(xc)+E(xc)   XCENC  =       -42.86614633
  PAW double counting   =      3910.81146487    -3749.11606057
  entropy T*S    EENTRO =        -0.00000000
  eigenvalues    EBANDS =      -526.15699509
  atomic energy  EATOM  =      1238.03527989
  Solvation  Ediel_sol  =         0.00000000
  ---------------------------------------------------
  free energy    TOTEN  =      -102.08371630 eV

  energy without entropy =     -102.08371630  energy(sigma->0) =     -102.08371630


--------------------------------------------------------------------------------------------------------




--------------------------------------- Iteration      1(  21)  ---------------------------------------


    POTLOK:  cpu time    1.7237: real time    1.7238
    SETDIJ:  cpu time    0.0070: real time    0.0075
     EDDAV:  cpu time    8.2697: real time    8.2673
       DOS:  cpu time    0.0010: real time    0.0005
    CHARGE:  cpu time    0.4909: real time    0.4906
    MIXING:  cpu time    0.1410: real time    0.1409
    --------------------------------------------
      LOOP:  cpu time   10.6334: real time   10.6306

 eigenvalue-minimisations  :    80
 total energy-change (2. order) :-0.2705965E-04  (-0.8978781E-07)
 number of electron      56.0000009 magnetization 
 augmentation part       -3.5186524 magnetization 

 Broyden mixing:
  rms(total) = 0.58716E-04    rms(broyden)= 0.58713E-04
  rms(prec ) = 0.72317E-04
  weight for this iteration     100.00

 eigenvalues of (default mixing * dielectric matrix)
  average eigenvalue GAMMA=   2.5058
  8.5542  6.6500  4.1519  2.9506  2.6210  1.9177  1.9177  1.8712  1.6947  1.6947
  1.1463  0.9395  0.9395  1.0059  1.0187  1.0187

 Free energy of the ion-electron system (eV)
  ---------------------------------------------------
  alpha Z        PSCENC =         1.96423985
  Ewald energy   TEWEN  =      2629.98113996
  -Hartree energ DENC   =     -3564.74199973
  -exchange      EXHF   =         0.00000000
  -V(xc)+E(xc)   XCENC  =       -42.86634588
  PAW double counting   =      3910.88767330    -3749.19232519
  entropy T*S    EENTRO =        -0.00000000
  eigenvalues    EBANDS =      -526.15140555
  atomic energy  EATOM  =      1238.03527989
  Solvation  Ediel_sol  =         0.00000000
  ---------------------------------------------------
  free energy    TOTEN  =      -102.08374336 eV

  energy without entropy =     -102.08374336  energy(sigma->0) =     -102.08374336


--------------------------------------------------------------------------------------------------------




--------------------------------------- Iteration      1(  22)  ---------------------------------------


    POTLOK:  cpu time    1.7127: real time    1.7117
    SETDIJ:  cpu time    0.0070: real time    0.0074
     EDDAV:  cpu time    8.8407: real time    8.8372
       DOS:  cpu time    0.0000: real time    0.0004
    CHARGE:  cpu time    0.4849: real time    0.4847
    MIXING:  cpu time    0.1510: real time    0.1509
    --------------------------------------------
      LOOP:  cpu time   11.1963: real time   11.1924

 eigenvalue-minimisations  :    88
 total energy-change (2. order) :-0.7258673E-05  (-0.1630089E-07)
 number of electron      56.0000009 magnetization 
 augmentation part       -3.5186604 magnetization 

 Broyden mixing:
  rms(total) = 0.18894E-04    rms(broyden)= 0.18894E-04
  rms(prec ) = 0.26756E-04
  weight for this iteration     100.00

 eigenvalues of (default mixing * dielectric matrix)
  average eigenvalue GAMMA=   2.5288
  8.7944  6.7787  4.6362  3.2527  2.5894  2.5894  1.8643  1.8643  1.6760  1.6760
  1.2326  1.2326  0.9808  0.9808  0.9684  0.9362  0.9362

 Free energy of the ion-electron system (eV)
  ---------------------------------------------------
  alpha Z        PSCENC =         1.96423985
  Ewald energy   TEWEN  =      2629.98113996
  -Hartree energ DENC   =     -3564.74133292
  -exchange      EXHF   =         0.00000000
  -V(xc)+E(xc)   XCENC  =       -42.86621123
  PAW double counting   =      3910.95990170    -3749.26447476
  entropy T*S    EENTRO =        -0.00000000
  eigenvalues    EBANDS =      -526.15229312
  atomic energy  EATOM  =      1238.03527989
  Solvation  Ediel_sol  =         0.00000000
  ---------------------------------------------------
  free energy    TOTEN  =      -102.08375062 eV

  energy without entropy =     -102.08375062  energy(sigma->0) =     -102.08375062


--------------------------------------------------------------------------------------------------------




--------------------------------------- Iteration      1(  23)  ---------------------------------------


    POTLOK:  cpu time    1.7157: real time    1.7155
    SETDIJ:  cpu time    0.0080: real time    0.0078
     EDDAV:  cpu time    8.2827: real time    8.2803
       DOS:  cpu time    0.0010: real time    0.0004
    CHARGE:  cpu time    0.4869: real time    0.4874
    MIXING:  cpu time    0.1670: real time    0.1667
    --------------------------------------------
      LOOP:  cpu time   10.6614: real time   10.6580

 eigenvalue-minimisations  :    80
 total energy-change (2. order) :-0.3809982E-05  (-0.9735496E-08)
 number of electron      56.0000009 magnetization 
 augmentation part       -3.5186700 magnetization 

 Broyden mixing:
  rms(total) = 0.15982E-04    rms(broyden)= 0.15981E-04
  rms(prec ) = 0.20331E-04
  weight for this iteration     100.00

 eigenvalues of (default mixing * dielectric matrix)
  average eigenvalue GAMMA=   2.5414
  8.8346  6.9086  4.8044  3.3730  2.7588  2.7588  1.9780  1.9780  1.7292  1.7292
  1.5650  1.2543  1.1155  1.1155  0.9430  0.9430  0.9781  0.9781

 Free energy of the ion-electron system (eV)
  ---------------------------------------------------
  alpha Z        PSCENC =         1.96423985
  Ewald energy   TEWEN  =      2629.98113996
  -Hartree energ DENC   =     -3564.74032403
  -exchange      EXHF   =         0.00000000
  -V(xc)+E(xc)   XCENC  =       -42.86627641
  PAW double counting   =      3910.91998255    -3749.22450335
  entropy T*S    EENTRO =        -0.00000000
  eigenvalues    EBANDS =      -526.15329289
  atomic energy  EATOM  =      1238.03527989
  Solvation  Ediel_sol  =         0.00000000
  ---------------------------------------------------
  free energy    TOTEN  =      -102.08375443 eV

  energy without entropy =     -102.08375443  energy(sigma->0) =     -102.08375443


--------------------------------------------------------------------------------------------------------




--------------------------------------- Iteration      1(  24)  ---------------------------------------


    POTLOK:  cpu time    1.7877: real time    1.7910
    SETDIJ:  cpu time    0.0080: real time    0.0076
     EDDAV:  cpu time    8.2747: real time    8.2742
       DOS:  cpu time    0.0000: real time    0.0004
    CHARGE:  cpu time    0.4899: real time    0.4897
    MIXING:  cpu time    0.1770: real time    0.1769
    --------------------------------------------
      LOOP:  cpu time   10.7374: real time   10.7399

 eigenvalue-minimisations  :    80
 total energy-change (2. order) :-0.2258785E-05  (-0.3428836E-08)
 number of electron      56.0000009 magnetization 
 augmentation part       -3.5186697 magnetization 

 Broyden mixing:
  rms(total) = 0.74660E-05    rms(broyden)= 0.74653E-05
  rms(prec ) = 0.94748E-05
  weight for this iteration     100.00

 eigenvalues of (default mixing * dielectric matrix)
  average eigenvalue GAMMA=   2.5589
  8.8657  7.1150  5.4518  3.8632  2.9441  2.4565  2.4565  1.8805  1.8805  1.6732
  1.6732  1.2378  1.2378  0.9774  0.9774  0.9401  0.9401  1.0243  1.0243

 Free energy of the ion-electron system (eV)
  ---------------------------------------------------
  alpha Z        PSCENC =         1.96423985
  Ewald energy   TEWEN  =      2629.98113996
  -Hartree energ DENC   =     -3564.74132220
  -exchange      EXHF   =         0.00000000
  -V(xc)+E(xc)   XCENC  =       -42.86627139
  PAW double counting   =      3910.86854497    -3749.17309660
  entropy T*S    EENTRO =        -0.00000000
  eigenvalues    EBANDS =      -526.15227117
  atomic energy  EATOM  =      1238.03527989
  Solvation  Ediel_sol  =         0.00000000
  ---------------------------------------------------
  free energy    TOTEN  =      -102.08375669 eV

  energy without entropy =     -102.08375669  energy(sigma->0) =     -102.08375669


--------------------------------------------------------------------------------------------------------




--------------------------------------- Iteration      1(  25)  ---------------------------------------


    POTLOK:  cpu time    1.7367: real time    1.7368
    SETDIJ:  cpu time    0.0130: real time    0.0130
     EDDAV:  cpu time    8.8237: real time    8.8504
       DOS:  cpu time    0.0000: real time    0.0002
    --------------------------------------------
      LOOP:  cpu time   10.5734: real time   10.6005

 eigenvalue-minimisations  :    88
 total energy-change (2. order) :-0.5325087E-06  (-0.9743300E-09)
 number of electron      56.0000009 magnetization 
 augmentation part       -3.5186697 magnetization 

 Free energy of the ion-electron system (eV)
  ---------------------------------------------------
  alpha Z        PSCENC =         1.96423985
  Ewald energy   TEWEN  =      2629.98113996
  -Hartree energ DENC   =     -3564.74208384
  -exchange      EXHF   =         0.00000000
  -V(xc)+E(xc)   XCENC  =       -42.86623895
  PAW double counting   =      3910.87944187    -3749.18400948
  entropy T*S    EENTRO =        -0.00000000
  eigenvalues    EBANDS =      -526.15152651
  atomic energy  EATOM  =      1238.03527989
  Solvation  Ediel_sol  =         0.00000000
  ---------------------------------------------------
  free energy    TOTEN  =      -102.08375722 eV

  energy without entropy =     -102.08375722  energy(sigma->0) =     -102.08375722


--------------------------------------------------------------------------------------------------------




 average (electrostatic) potential at core
  the test charge radii are     0.9892  1.1631  0.5201
  (the norm of the test charge is              1.0000)
       1 -93.4375       2 -93.4636       3 -93.4375       4 -93.4375       5 -93.4635
       6 -93.4635       7 -40.3936       8 -40.3936       9 -40.3476      10 -40.3936
      11 -40.6959      12 -40.6957      13 -40.6880      14 -41.0758      15 -41.0641
      16 -41.0757      17 -41.0651      18 -40.6881      19 -40.6884      20 -40.6957
      21 -40.6959      22 -41.0842      23 -40.6962      24 -40.6963      25 -41.0639
      26 -41.0753
 
 
 
 E-fermi :  -5.4422     XC(G=0):  -0.6080     alpha+bet : -0.3388


 k-point     1 :       0.0000    0.0000    0.0000
  band No.  band energies     occupation 
      1     -15.1230      2.00000
      2     -14.2746      2.00000
      3     -14.0600      2.00000
      4     -14.0600      2.00000
      5     -12.8876      2.00000
      6     -12.8875      2.00000
      7     -11.6358      2.00000
      8     -11.3387      2.00000
      9     -11.3387      2.00000
     10     -10.4102      2.00000
     11      -8.9554      2.00000
     12      -8.6357      2.00000
     13      -8.6179      2.00000
     14      -8.6179      2.00000
     15      -8.1966      2.00000
     16      -8.1717      2.00000
     17      -8.1716      2.00000
     18      -7.8601      2.00000
     19      -7.8548      2.00000
     20      -7.8548      2.00000
     21      -6.7798      2.00000
     22      -6.7797      2.00000
     23      -6.4685      2.00000
     24      -6.4685      2.00000
     25      -6.4652      2.00000
     26      -6.3888      2.00000
     27      -6.3888      2.00000
     28      -6.3840      2.00000
     29      -1.7584      0.00000
     30      -1.3680      0.00000
     31      -1.3679      0.00000
     32      -1.2687      0.00000
     33      -1.1160      0.00000
     34      -1.1156      0.00000
     35      -1.0676      0.00000
     36      -0.8851      0.00000
     37      -0.8846      0.00000
     38      -0.5809      0.00000
     39      -0.4084      0.00000
     40      -0.4082      0.00000
     41      -0.3725      0.00000
     42      -0.1812      0.00000


--------------------------------------------------------------------------------------------------------


 soft charge-density along one line, spin component           1
         0         1         2         3         4         5         6         7         8         9
 total charge-density along one line
 
 pseudopotential strength for first ion, spin component:           1
 19.618  27.378  -0.001   0.003   0.003  -0.001   0.006   0.005
 27.378  38.212  -0.001   0.004   0.004  -0.001   0.008   0.007
 -0.001  -0.001   4.360   0.000  -0.000   8.133   0.000  -0.000
  0.003   0.004   0.000   4.359   0.000   0.000   8.132   0.000
  0.003   0.004  -0.000   0.000   4.359  -0.000   0.000   8.132
 -0.001  -0.001   8.133   0.000  -0.000  15.182   0.001  -0.000
  0.006   0.008   0.000   8.132   0.000   0.001  15.179   0.001
  0.005   0.007  -0.000   0.000   8.132  -0.000   0.001  15.180
 total augmentation occupancy for first ion, spin component:           1
  5.529  -2.023   0.071  -0.343  -0.068  -0.021   0.103   0.022
 -2.023   0.807  -0.043   0.208   0.036   0.009  -0.045  -0.007
  0.071  -0.043   2.795  -0.107  -0.007  -0.603   0.037   0.003
 -0.343   0.208  -0.107   3.279   0.045   0.037  -0.772  -0.018
 -0.068   0.036  -0.007   0.045   2.821   0.003  -0.018  -0.608
 -0.021   0.009  -0.603   0.037   0.003   0.137  -0.010  -0.001
  0.103  -0.045   0.037  -0.772  -0.018  -0.010   0.185   0.006
  0.022  -0.007   0.003  -0.018  -0.608  -0.001   0.006   0.138


------------------------ aborting loop because EDIFF is reached ----------------------------------------


    CHARGE:  cpu time    0.4749: real time    0.4743
    FORLOC:  cpu time    0.1750: real time    0.1748
    FORNL :  cpu time    1.0758: real time    1.0762
    STRESS:  cpu time    7.9208: real time    7.9177
    FORCOR:  cpu time    1.7167: real time    1.7164
    FORHAR:  cpu time    0.5839: real time    0.5840
    MIXING:  cpu time    0.1920: real time    0.1913
    OFIELD:  cpu time    0.0000: real time    0.0000

  FORCE on cell =-STRESS in cart. coord.  units (eV):
  Direction    XX          YY          ZZ          XY          YZ          ZX
  --------------------------------------------------------------------------------------
  Alpha Z     1.96424     1.96424     1.96424
  Ewald     876.64706   876.62235   876.71007    -0.21850     0.02563    -0.50464
  Hartree  1187.94869  1188.40035  1188.39320    -0.27133     0.05346    -0.32473
  E(xc)    -177.31743  -177.08186  -177.13289    -0.03911     0.01902     0.11757
  Local   -2568.28878 -2568.51510 -2568.63839     0.45641    -0.06291     0.92994
  n-local   274.11292   272.76254   273.05486     0.22452    -0.10906    -0.67389
  augment   -27.58939   -27.59499   -27.59282     0.00064    -0.00048    -0.00221
  Kinetic   428.78020   429.39161   429.25911    -0.10162     0.04947     0.30489
  Fock        0.00000     0.00000     0.00000     0.00000     0.00000     0.00000
  -------------------------------------------------------------------------------------
  Total      -3.74250    -4.05084    -3.98262     0.05102    -0.02486    -0.15306
  in kB      -0.74952    -0.81127    -0.79761     0.01022    -0.00498    -0.03065
  external pressure =       -0.79 kB  Pullay stress =        0.00 kB


 VOLUME and BASIS-vectors are now :
 -----------------------------------------------------------------------------
  energy-cutoff  :      400.00
[...]
    SETDIJ:  cpu time    0.0070: real time    0.0075
     EDDAV:  cpu time   11.2523: real time   11.2591
       DOS:  cpu time    0.0010: real time    0.0004
    CHARGE:  cpu time    0.4889: real time    0.4891
    MIXING:  cpu time    0.0460: real time    0.0459
    --------------------------------------------
      LOOP:  cpu time   13.5369: real time   13.5587

 eigenvalue-minimisations  :   120
 total energy-change (2. order) : 0.1439397E-04  (-0.4147185E-05)
 number of electron      55.9999993 magnetization 
 augmentation part       -3.5152351 magnetization 

 Broyden mixing:
  rms(total) = 0.16811E-02    rms(broyden)= 0.16810E-02
  rms(prec ) = 0.17902E-02
  weight for this iteration     100.00

 eigenvalues of (default mixing * dielectric matrix)
  average eigenvalue GAMMA=   1.5522
  1.0978  2.0066

 Free energy of the ion-electron system (eV)
  ---------------------------------------------------
  alpha Z        PSCENC =         1.96423985
  Ewald energy   TEWEN  =      2647.61440493
  -Hartree energ DENC   =     -3581.30576202
  -exchange      EXHF   =         0.00000000
  -V(xc)+E(xc)   XCENC  =       -42.18621092
  PAW double counting   =      4149.98348676    -3988.38988518
  entropy T*S    EENTRO =        -0.00000000
  eigenvalues    EBANDS =      -528.02476598
  atomic energy  EATOM  =      1238.03527989
  Solvation  Ediel_sol  =         0.00000000
  ---------------------------------------------------
  free energy    TOTEN  =      -102.30921266 eV

  energy without entropy =     -102.30921266  energy(sigma->0) =     -102.30921266


--------------------------------------------------------------------------------------------------------




--------------------------------------- Iteration     14(   4)  ---------------------------------------


    POTLOK:  cpu time    1.7567: real time    1.7585
    SETDIJ:  cpu time    0.0080: real time    0.0076
     EDDAV:  cpu time   10.6794: real time   10.6900
       DOS:  cpu time    0.0000: real time    0.0003
    CHARGE:  cpu time    0.4909: real time    0.4908
    MIXING:  cpu time    0.0490: real time    0.0489
    --------------------------------------------
      LOOP:  cpu time   12.9840: real time   12.9961

 eigenvalue-minimisations  :   112
 total energy-change (2. order) : 0.3376114E-05  (-0.1348531E-05)
 number of electron      55.9999993 magnetization 
 augmentation part       -3.5154768 magnetization 

 Broyden mixing:
  rms(total) = 0.39769E-03    rms(broyden)= 0.39763E-03
  rms(prec ) = 0.45123E-03
  weight for this iteration     100.00

 eigenvalues of (default mixing * dielectric matrix)
  average eigenvalue GAMMA=   1.5349
  2.3798  1.1124  1.1124

 Free energy of the ion-electron system (eV)
  ---------------------------------------------------
  alpha Z        PSCENC =         1.96423985
  Ewald energy   TEWEN  =      2647.61440493
  -Hartree energ DENC   =     -3581.28119441
  -exchange      EXHF   =         0.00000000
  -V(xc)+E(xc)   XCENC  =       -42.18666754
  PAW double counting   =      4148.52784582    -3986.93333019
  entropy T*S    EENTRO =        -0.00000000
  eigenvalues    EBANDS =      -528.04978763
  atomic energy  EATOM  =      1238.03527989
  Solvation  Ediel_sol  =         0.00000000
  ---------------------------------------------------
  free energy    TOTEN  =      -102.30920929 eV

  energy without entropy =     -102.30920929  energy(sigma->0) =     -102.30920929


--------------------------------------------------------------------------------------------------------




--------------------------------------- Iteration     14(   5)  ---------------------------------------


    POTLOK:  cpu time    1.7407: real time    1.7412
    SETDIJ:  cpu time    0.0080: real time    0.0075
     EDDAV:  cpu time    8.7997: real time    8.8460
       DOS:  cpu time    0.0000: real time    0.0003
    --------------------------------------------
      LOOP:  cpu time   10.5484: real time   10.5950

 eigenvalue-minimisations  :    88
 total energy-change (2. order) : 0.2314209E-07  (-0.1049306E-06)
 number of electron      55.9999993 magnetization 
 augmentation part       -3.5154768 magnetization 

 Free energy of the ion-electron system (eV)
  ---------------------------------------------------
  alpha Z        PSCENC =         1.96423985
  Ewald energy   TEWEN  =      2647.61440493
  -Hartree energ DENC   =     -3581.27812125
  -exchange      EXHF   =         0.00000000
  -V(xc)+E(xc)   XCENC  =       -42.18717280
  PAW double counting   =      4148.03635165    -3986.44184783
  entropy T*S    EENTRO =        -0.00000000
  eigenvalues    EBANDS =      -528.05234370
  atomic energy  EATOM  =      1238.03527989
  Solvation  Ediel_sol  =         0.00000000
  ---------------------------------------------------
  free energy    TOTEN  =      -102.30920926 eV

  energy without entropy =     -102.30920926  energy(sigma->0) =     -102.30920926


--------------------------------------------------------------------------------------------------------




 average (electrostatic) potential at core
  the test charge radii are     0.9892  1.1631  0.5201
  (the norm of the test charge is              1.0000)
       1 -93.3998       2 -93.3335       3 -93.3999       4 -93.4000       5 -93.3336
       6 -93.3336       7 -40.3816       8 -40.3815       9 -40.3309      10 -40.3817
      11 -40.8423      12 -40.8419      13 -40.8966      14 -40.9770      15 -40.9777
      16 -40.9769      17 -40.9781      18 -40.8977      19 -40.8972      20 -40.8429
      21 -40.8422      22 -40.9950      23 -40.8415      24 -40.8425      25 -40.9781
      26 -40.9765
 
 
 
 E-fermi :  -5.4283     XC(G=0):  -0.6097     alpha+bet : -0.3388


 k-point     1 :       0.0000    0.0000    0.0000
  band No.  band energies     occupation 
      1     -15.1254      2.00000
      2     -14.2094      2.00000
      3     -14.0754      2.00000
      4     -14.0754      2.00000
      5     -12.9888      2.00000
      6     -12.9887      2.00000
      7     -11.7265      2.00000
      8     -11.4462      2.00000
      9     -11.4461      2.00000
     10     -10.5329      2.00000
     11      -9.0435      2.00000
     12      -8.6700      2.00000
     13      -8.6699      2.00000
     14      -8.5369      2.00000
     15      -8.3009      2.00000
     16      -8.0986      2.00000
     17      -8.0984      2.00000
     18      -7.9619      2.00000
     19      -7.9619      2.00000
     20      -7.7956      2.00000
     21      -6.8258      2.00000
     22      -6.8258      2.00000
     23      -6.4686      2.00000
     24      -6.4685      2.00000
     25      -6.4500      2.00000
     26      -6.4354      2.00000
     27      -6.3998      2.00000
     28      -6.3997      2.00000
     29      -1.7025      0.00000
     30      -1.3733      0.00000
     31      -1.3730      0.00000
     32      -1.2937      0.00000
     33      -1.1543      0.00000
     34      -1.1540      0.00000
     35      -1.0872      0.00000
     36      -0.7732      0.00000
     37      -0.7728      0.00000
     38      -0.4614      0.00000
     39      -0.3569      0.00000
     40      -0.3569      0.00000
     41      -0.2278      0.00000
     42      -0.1572      0.00000


--------------------------------------------------------------------------------------------------------


 soft charge-density along one line, spin component           1
         0         1         2         3         4         5         6         7         8         9
 total charge-density along one line
 
 pseudopotential strength for first ion, spin component:           1
 19.620  27.380  -0.000   0.003   0.003  -0.001   0.005   0.005
 27.380  38.214  -0.001   0.004   0.004  -0.001   0.007   0.007
 -0.000  -0.001   4.362   0.000  -0.000   8.136   0.000  -0.000
  0.003   0.004   0.000   4.362   0.000   0.000   8.136   0.000
  0.003   0.004  -0.000   0.000   4.361  -0.000   0.000   8.135
 -0.001  -0.001   8.136   0.000  -0.000  15.187   0.000  -0.000
  0.005   0.007   0.000   8.136   0.000   0.000  15.187   0.001
  0.005   0.007  -0.000   0.000   8.135  -0.000   0.001  15.186
 total augmentation occupancy for first ion, spin component:           1
  5.778  -2.157   0.091  -0.465  -0.174  -0.028   0.143   0.057
 -2.157   0.869  -0.053   0.265   0.083   0.013  -0.064  -0.023
  0.091  -0.053   2.785  -0.166   0.009  -0.603   0.054  -0.001
 -0.465   0.265  -0.166   3.516   0.004   0.054  -0.842  -0.006
 -0.174   0.083   0.009   0.004   2.915  -0.001  -0.006  -0.635
 -0.028   0.013  -0.603   0.054  -0.001   0.137  -0.015   0.000
  0.143  -0.064   0.054  -0.842  -0.006  -0.015   0.205   0.002
  0.057  -0.023  -0.001  -0.006  -0.635   0.000   0.002   0.145


------------------------ aborting loop because EDIFF is reached ----------------------------------------


    CHARGE:  cpu time    0.4859: real time    0.4857
    FORLOC:  cpu time    0.1720: real time    0.1722
    FORNL :  cpu time    1.0748: real time    1.0749
    STRESS:  cpu time    8.1338: real time    8.1382
    FORCOR:  cpu time    1.7197: real time    1.7196
    FORHAR:  cpu time    0.5809: real time    0.5811
    MIXING:  cpu time    0.0510: real time    0.0507
    OFIELD:  cpu time    0.0010: real time    0.0000

  FORCE on cell =-STRESS in cart. coord.  units (eV):
  Direction    XX          YY          ZZ          XY          YZ          ZX
  --------------------------------------------------------------------------------------
  Alpha Z     1.96424     1.96424     1.96424
  Ewald     878.02280   885.57456   884.01536    -0.92600     0.35895     1.54087
  Hartree  1187.40369  1198.03903  1195.83489    -1.46147     0.61786     3.18079
  E(xc)    -178.13023  -177.94583  -177.98543    -0.03071     0.01486     0.09214
  Local   -2570.31483 -2587.86152 -2584.23666     2.28169    -0.92499    -4.40226
  n-local   275.51436   273.89864   274.24458     0.26911    -0.13009    -0.80892
  augment   -27.73484   -27.68784   -27.69822    -0.00811     0.00367     0.02373
  Kinetic   432.43479   433.25970   433.08186    -0.13687     0.06782     0.41592
  Fock        0.00000     0.00000     0.00000     0.00000     0.00000     0.00000
  -------------------------------------------------------------------------------------
  Total      -0.84004    -0.75902    -0.77938    -0.01237     0.00809     0.04226
  in kB      -0.16824    -0.15201    -0.15609    -0.00248     0.00162     0.00846
  external pressure =       -0.16 kB  Pullay stress =        0.00 kB


 VOLUME and BASIS-vectors are now :
 -----------------------------------------------------------------------------
  energy-cutoff  :      400.00
  volume of cell :     8000.00
      direct lattice vectors                 reciprocal lattice vectors
    20.000000000  0.000000000  0.000000000     0.050000000  0.000000000  0.000000000
     0.000000000 20.000000000  0.000000000     0.000000000  0.050000000  0.000000000
     0.000000000  0.000000000 20.000000000     0.000000000  0.000000000  0.050000000

  length of vectors
    20.000000000 20.000000000 20.000000000     0.050000000  0.050000000  0.050000000


 FORCES acting on ions
    electron-ion (+dipol)            ewald-force                    non-local-force                 convergence-correction
 -----------------------------------------------------------------------------------------------
   0.952E+01 -.189E+02 0.894E+02   -.106E+02 0.192E+02 -.908E+02   0.110E+01 -.244E+00 0.141E+01   -.241E-02 -.173E-03 0.149E-03
   0.886E+02 -.474E+01 0.448E+02   -.901E+02 0.499E+01 -.463E+02   0.148E+01 -.258E+00 0.158E+01   -.806E-03 0.100E-04 -.278E-03
   -.529E+02 0.748E+02 -.757E+01   0.531E+02 -.765E+02 0.817E+01   -.189E+00 0.169E+01 -.596E+00   -.176E-02 -.118E-02 0.118E-02
   -.448E+02 -.702E+02 -.391E+02   0.448E+02 0.715E+02 0.404E+02   -.215E-01 -.131E+01 -.125E+01   -.184E-02 0.394E-03 0.153E-02
   0.307E+02 0.826E+02 -.460E+02   -.307E+02 -.847E+02 0.468E+02   -.393E-01 0.203E+01 -.792E+00   -.404E-03 -.700E-03 0.351E-03
   0.383E+02 -.526E+02 -.752E+02   -.384E+02 0.541E+02 0.768E+02   0.161E+00 -.151E+01 -.156E+01   -.461E-03 0.419E-03 0.627E-03
   -.374E+02 0.548E+02 0.769E+02   0.377E+02 -.552E+02 -.774E+02   -.278E+00 0.366E+00 0.533E+00   -.158E-02 -.126E-02 -.207E-03
   -.296E+02 -.851E+02 0.466E+02   0.298E+02 0.857E+02 -.469E+02   -.226E+00 -.582E+00 0.327E+00   -.170E-02 0.106E-02 0.295E-03
   0.834E+02 0.135E+02 -.406E+02   -.838E+02 -.136E+02 0.408E+02   0.404E+00 0.646E-01 -.197E+00   0.192E-03 0.352E-04 -.105E-03
   -.895E+02 0.524E+01 -.473E+02   0.902E+02 -.527E+01 0.476E+02   -.633E+00 0.317E-01 -.307E+00   -.703E-03 -.438E-03 0.182E-02
   0.216E+02 0.413E+02 0.628E+01   -.230E+02 -.435E+02 -.755E+01   0.142E+01 0.227E+01 0.126E+01   0.175E-04 -.695E-04 0.246E-04
   0.144E+01 0.224E+02 -.414E+02   -.111E+01 -.230E+02 0.443E+02   -.329E+00 0.623E+00 -.288E+01   0.480E-05 -.817E-04 0.119E-04
   -.275E+02 0.400E+02 -.443E+01   0.292E+02 -.424E+02 0.469E+01   -.166E+01 0.239E+01 -.256E+00   -.333E-03 -.212E-03 0.219E-03
   -.445E+02 -.372E+01 0.556E+01   0.467E+02 0.408E+01 -.662E+01   -.224E+01 -.357E+00 0.107E+01   0.690E-04 -.564E-04 0.276E-03
   -.208E+02 0.745E+01 -.395E+02   0.212E+02 -.795E+01 0.420E+02   -.409E+00 0.503E+00 -.242E+01   -.215E-03 -.920E-04 0.368E-03
   -.354E+02 0.514E+01 0.276E+02   0.376E+02 -.479E+01 -.287E+02   -.223E+01 -.343E+00 0.110E+01   -.117E-03 -.227E-03 -.146E-03
   0.784E+01 0.345E+02 0.283E+02   -.894E+01 -.364E+02 -.294E+02   0.110E+01 0.193E+01 0.116E+01   -.374E-03 -.241E-03 0.807E-05
   0.586E+01 -.100E+02 0.472E+02   -.619E+01 0.106E+02 -.501E+02   0.333E+00 -.598E+00 0.284E+01   -.447E-03 -.341E-04 0.369E-04
   -.232E+02 -.373E+02 -.213E+02   0.246E+02 0.396E+02 0.226E+02   -.140E+01 -.223E+01 -.126E+01   -.348E-03 0.690E-04 0.281E-03
   0.287E+01 -.299E+01 -.467E+02   -.254E+01 0.241E+01 0.496E+02   -.328E+00 0.590E+00 -.288E+01   -.326E-05 0.687E-04 0.407E-04
   0.260E+02 -.377E+02 -.109E+02   -.277E+02 0.402E+02 0.107E+02   0.168E+01 -.243E+01 0.241E+00   0.111E-04 0.543E-04 0.548E-04
   0.417E+02 0.679E+01 -.204E+02   -.439E+02 -.715E+01 0.215E+02   0.219E+01 0.354E+00 -.106E+01   0.145E-03 0.226E-04 -.689E-04
   0.323E+02 0.251E+02 0.233E+02   -.338E+02 -.273E+02 -.246E+02   0.143E+01 0.225E+01 0.128E+01   -.300E-04 0.188E-04 -.580E-04
   0.353E+02 -.288E+02 0.116E+02   -.370E+02 0.313E+02 -.119E+02   0.169E+01 -.242E+01 0.270E+00   -.284E-04 0.132E-06 -.618E-04
   0.121E+02 -.419E+02 0.117E+02   -.135E+02 0.440E+02 -.120E+02   0.133E+01 -.211E+01 0.282E+00   -.397E-03 0.180E-03 0.976E-04
   -.340E+02 -.198E+02 0.223E+02   0.363E+02 0.202E+02 -.234E+02   -.223E+01 -.383E+00 0.109E+01   -.143E-03 0.255E-03 -.423E-04
 -----------------------------------------------------------------------------------------------
   -.210E+01 -.340E+00 0.101E+01   0.711E-14 0.355E-14 0.426E-13   0.211E+01 0.342E+00 -.102E+01   -.136E-01 -.218E-02 0.639E-02
 
 
 POSITION                                       TOTAL-FORCE (eV/Angst)
 -----------------------------------------------------------------------------------
      9.47675     11.12549      7.68308        -0.001379      0.002505     -0.011496
      7.39128     10.78712      8.70380        -0.007884     -0.002311      0.009182
     11.13181      8.63681     10.25975         0.007014     -0.009664      0.000877
     10.91601     12.48725     11.09580         0.005865      0.009145      0.004938
      9.04193      8.30491     11.27348        -0.011104      0.003207      0.004410
      8.82671     12.14516     12.10738        -0.010791     -0.005839      0.002246
     10.81498      9.14536      7.93270         0.005584     -0.001867     -0.005295
     10.60140     12.95567      8.75999         0.005187      0.004680     -0.003834
      7.72110     10.29946     11.03473        -0.003242     -0.000741      0.001460
     12.23929     10.49291     11.30968         0.007841      0.000450      0.000626
      8.32652      7.15486     10.63304         0.000673     -0.006604     -0.002062
      9.21005      7.99105     12.72882         0.002793     -0.004180      0.003435
     11.98268      7.40725     10.39150         0.004686     -0.006805      0.000755
     13.63171     10.71482     10.64657        -0.004805     -0.001317      0.004816
     12.49132     10.18019     12.81529        -0.000435      0.000804     -0.004398
     12.19933      9.35980      7.25052        -0.006307     -0.002598      0.001482
     10.12883      7.94502      7.21404         0.002194      0.003416      0.001874
      9.30543     11.43266      6.22386        -0.001173      0.001669     -0.008246
     11.63352     13.63554     11.74366         0.003946      0.006480      0.003633
      8.99390     11.84515     13.56573         0.002331      0.002120      0.005158
      7.97772     13.37334     11.98327        -0.000355      0.006468      0.001301
      6.33059     10.07482     11.71104         0.007385      0.001251     -0.003559
      6.66978      9.64591      8.05434        -0.002143     -0.002007     -0.005898
      6.53726     12.01057      8.56760        -0.002236      0.004159     -0.004181
      9.77493     14.26518      8.58607         0.002691     -0.003478      0.000297
     11.98458     13.19169      8.08260        -0.006334      0.001056      0.002483
 -----------------------------------------------------------------------------------
    total drift:                               -0.000454      0.000287     -0.000973


--------------------------------------------------------------------------------------------------------



  FREE ENERGIE OF THE ION-ELECTRON SYSTEM (eV)
  ---------------------------------------------------
  free  energy   TOTEN  =      -102.30920926 eV

  energy  without entropy=     -102.30920926  energy(sigma->0) =     -102.30920926
 
 d Force = 0.4111962E-03[ 0.130E-03, 0.693E-03]  d Energy = 0.4029910E-03 0.821E-05
 d Force = 0.1487038E+01[ 0.149E+01, 0.149E+01]  d Ewald  = 0.1487037E+01 0.543E-06


--------------------------------------------------------------------------------------------------------


    POTLOK:  cpu time    1.7417: real time    1.7445


--------------------------------------------------------------------------------------------------------


 Conjugate gradient step on ions:
 trial-energy change:   -0.000403  1 .order   -0.000411   -0.000693   -0.000130
  (g-gl).g = 0.533E-03      g.g   = 0.536E-03  gl.gl    = 0.752E-03
 g(Force)  = 0.536E-03   g(Stress)= 0.000E+00 ortho     = 0.357E-05
 gamma     =   0.70919
 trial     =   1.28739
 opt step  =   1.62010  (harmonic =   1.58351) maximal distance =0.00386715
 next E    =  -102.309226   (d E  =  -0.00042)


--------------------------------------------------------------------------------------------------------


  
 reached required accuracy - stopping structural energy minimisation
 writing wavefunctions
     LOOP+:  cpu time   75.6055: real time   76.1497
    4ORBIT:  cpu time    0.0000: real time    0.0000

 total amount of memory used by VASP MPI-rank0   131440. kBytes
=======================================================================

   base      :      30000. kBytes
   nonl-proj :      17624. kBytes
   fftplans  :      26957. kBytes
   grid      :      48673. kBytes
   one-center:         40. kBytes
   wavefun   :       8146. kBytes
 
  
  
 General timing and accounting informations for this job:
 ========================================================
  
                  Total CPU time used (sec):     1843.929
                            User time (sec):     1820.082
                          System time (sec):       23.846
                         Elapsed time (sec):     1849.474
  
                   Maximum memory used (kb):      186424.
                   Average memory used (kb):           0.
  
                          Minor page faults:      4354603
                          Major page faults:            7
                 Voluntary context switches:         3618
