 vasp.5.4.4.18Apr17-6-g9f103f2a35 (build Nov 06 2017 19:16:10) complex          
  
 executed on           IFC91_ompi date 2018.07.12  19:44:50
 running on   12 total cores
 distrk:  each k-point on   12 cores,    1 groups
 distr:  one band on NCORES_PER_BAND=   6 cores,    2 groups


--------------------------------------------------------------------------------------------------------


 INCAR:
 POTCAR:    PAW_PBE Si 05Jan2001                  
 POTCAR:    PAW_PBE Ge 05Jan2001                  
 POTCAR:    PAW_PBE H 15Jun2001                   
 POTCAR:    PAW_PBE Si 05Jan2001                  
   VRHFIN =Si: s2p2                                                             
   LEXCH  = PE                                                                  
   EATOM  =   103.0669 eV,    7.5752 Ry                                         
                                                                                
   TITEL  = PAW_PBE Si 05Jan2001                                                
   LULTRA =        F    use ultrasoft PP ?                                      
   IUNSCR =        1    unscreen: 0-lin 1-nonlin 2-no                           
   RPACOR =    1.500    partial core radius                                     
   POMASS =   28.085; ZVAL   =    4.000    mass and valenz                      
   RCORE  =    1.900    outmost cutoff radius                                   
   RWIGS  =    2.480; RWIGS  =    1.312    wigner-seitz radius (au A)           
   ENMAX  =  245.345; ENMIN  =  184.009 eV                                      
   ICORE  =        2    local potential                                         
   LCOR   =        T    correct aug charges                                     
   LPAW   =        T    paw PP                                                  
   EAUG   =  322.069                                                            
   DEXC   =    0.000                                                            
   RMAX   =    1.950    core radius for proj-oper                               
   RAUG   =    1.300    factor for augmentation sphere                          
   RDEP   =    1.993    radius for radial grids                                 
   RDEPT  =    1.837    core radius for aug-charge                              
                                                                                
   Atomic configuration                                                         
    6 entries                                                                   
     n  l   j            E        occ.                                          
     1  0  0.50     -1785.8828   2.0000                                         
     2  0  0.50      -139.4969   2.0000                                         
     2  1  1.50       -95.5546   6.0000                                         
     3  0  0.50       -10.8127   2.0000                                         
     3  1  0.50        -4.0811   2.0000                                         
     3  2  1.50        -4.0817   0.0000                                         
   Description                                                                  
     l       E           TYP  RCUT    TYP  RCUT                                 
     0    -10.8127223     23  1.900                                             
     0     -7.6451159     23  1.900                                             
     1     -4.0811372     23  1.900                                             
     1      2.4879257     23  1.900                                             
     2     -4.0817478      7  1.900                                             
  local pseudopotential read in
  partial core-charges read in
  partial kinetic energy density read in
  atomic valenz-charges read in
  non local Contribution for L=           0  read in
    real space projection operators read in
  non local Contribution for L=           0  read in
    real space projection operators read in
  non local Contribution for L=           1  read in
    real space projection operators read in
  non local Contribution for L=           1  read in
    real space projection operators read in
    PAW grid and wavefunctions read in
 
   number of l-projection  operators is LMAX  =           4
   number of lm-projection operators is LMMAX =           8
 
 POTCAR:    PAW_PBE Ge 05Jan2001                  
   VRHFIN =Ge: s2p2                                                             
   LEXCH  = PE                                                                  
   EATOM  =   104.9960 eV,    7.7170 Ry                                         
                                                                                
   TITEL  = PAW_PBE Ge 05Jan2001                                                
   LULTRA =        F    use ultrasoft PP ?                                      
   IUNSCR =        1    unscreen: 0-lin 1-nonlin 2-no                           
   RPACOR =    2.170    partial core radius                                     
   POMASS =   72.610; ZVAL   =    4.000    mass and valenz                      
   RCORE  =    2.300    outmost cutoff radius                                   
   RWIGS  =    2.300; RWIGS  =    1.217    wigner-seitz radius (au A)           
   ENMAX  =  173.807; ENMIN  =  130.355 eV                                      
   ICORE  =        3    local potential                                         
   LCOR   =        T    correct aug charges                                     
   LPAW   =        T    paw PP                                                  
   EAUG   =  385.843                                                            
   DEXC   =    0.000                                                            
   RMAX   =    2.342    core radius for proj-oper                               
   RAUG   =    1.300    factor for augmentation sphere                          
   RDEP   =    2.318    radius for radial grids                                 
   RDEPT  =    2.103    core radius for aug-charge                              
                                                                                
   Atomic configuration                                                         
   10 entries                                                                   
     n  l   j            E        occ.                                          
     1  0  0.50    -10959.8463   2.0000                                         
     2  0  0.50     -1371.6056   2.0000                                         
     2  1  1.50     -1198.4791   6.0000                                         
     3  0  0.50      -168.4733   2.0000                                         
     3  1  1.50      -115.6019   6.0000                                         
     3  2  2.50       -29.3106  10.0000                                         
     4  0  0.50       -11.7309   2.0000                                         
     4  1  0.50        -3.8952   2.0000                                         
     4  2  1.50        -4.0817   0.0000                                         
     4  3  2.50        -4.0817   0.0000                                         
   Description                                                                  
     l       E           TYP  RCUT    TYP  RCUT                                 
     0    -11.7309493     23  2.300                                             
     0     -7.4578696     23  2.300                                             
     1     -3.8952261     23  2.300                                             
     1      6.1178114     23  2.300                                             
     2     -4.0817478     23  2.300                                             
     3     -1.3605826      7  2.300                                             
  local pseudopotential read in
  partial core-charges read in
  partial kinetic energy density read in
  atomic valenz-charges read in
  non local Contribution for L=           0  read in
    real space projection operators read in
  non local Contribution for L=           0  read in
    real space projection operators read in
  non local Contribution for L=           1  read in
    real space projection operators read in
  non local Contribution for L=           1  read in
    real space projection operators read in
  non local Contribution for L=           2  read in
    real space projection operators read in
    PAW grid and wavefunctions read in
 
   number of l-projection  operators is LMAX  =           5
   number of lm-projection operators is LMMAX =          13
 
 POTCAR:    PAW_PBE H 15Jun2001                   
   VRHFIN =H: ultrasoft test                                                    
   LEXCH  = PE                                                                  
   EATOM  =    12.4884 eV,    0.9179 Ry                                         
                                                                                
   TITEL  = PAW_PBE H 15Jun2001                                                 
   LULTRA =        F    use ultrasoft PP ?                                      
   IUNSCR =        0    unscreen: 0-lin 1-nonlin 2-no                           
   RPACOR =    0.000    partial core radius                                     
   POMASS =    1.000; ZVAL   =    1.000    mass and valenz                      
   RCORE  =    1.100    outmost cutoff radius                                   
   RWIGS  =    0.700; RWIGS  =    0.370    wigner-seitz radius (au A)           
   ENMAX  =  250.000; ENMIN  =  200.000 eV                                      
   RCLOC  =    0.701    cutoff for local pot                                    
   LCOR   =        T    correct aug charges                                     
   LPAW   =        T    paw PP                                                  
   EAUG   =  400.000                                                            
   RMAX   =    1.123    core radius for proj-oper                               
   RAUG   =    1.200    factor for augmentation sphere                          
   RDEP   =    1.112    radius for radial grids                                 
   RDEPT  =    0.926    core radius for aug-charge                              
                                                                                
   Atomic configuration                                                         
    2 entries                                                                   
     n  l   j            E        occ.                                          
     1  0  0.50        -6.4927   1.0000                                         
     2  1  0.50        -3.4015   0.0000                                         
   Description                                                                  
     l       E           TYP  RCUT    TYP  RCUT                                 
     0     -6.4927494     23  1.100                                             
     0      6.8029130     23  1.100                                             
     1     -4.0817478     23  1.100                                             
  local pseudopotential read in
  atomic valenz-charges read in
  non local Contribution for L=           0  read in
    real space projection operators read in
  non local Contribution for L=           0  read in
    real space projection operators read in
  non local Contribution for L=           1  read in
    real space projection operators read in
    PAW grid and wavefunctions read in
 
   number of l-projection  operators is LMAX  =           3
   number of lm-projection operators is LMMAX =           5
 

 ----------------------------------------------------------------------------- 
|                                                                             |
|  ADVICE TO THIS USER RUNNING 'VASP/VAMP'   (HEAR YOUR MASTER'S VOICE ...):  |
|                                                                             |
|      You have a (more or less) 'large supercell' and for larger cells       |
|      it might be more efficient to use real space projection opertators     |
|      So try LREAL= Auto  in the INCAR   file.                               |
|      Mind:          For very  accurate calculation you might also keep the  |
|      reciprocal projection scheme          (i.e. LREAL=.FALSE.)             |
|                                                                             |
 ----------------------------------------------------------------------------- 

  PAW_PBE Si 05Jan2001                  :
 energy of atom  1       EATOM= -103.0669
 kinetic energy error for atom=    0.0012 (will be added to EATOM!!)
  PAW_PBE Ge 05Jan2001                  :
 energy of atom  2       EATOM= -104.9960
 kinetic energy error for atom=    0.0003 (will be added to EATOM!!)
  PAW_PBE H 15Jun2001                   :
 energy of atom  3       EATOM=  -12.4884
 kinetic energy error for atom=    0.0098 (will be added to EATOM!!)
 
 
 POSCAR: SiGeH16                                 
  positions in direct lattice
  No initial velocities read in
 exchange correlation table for  LEXCH =        8
   RHO(1)=    0.500       N(1)  =     2000
   RHO(2)=  100.500       N(2)  =     4000
 


--------------------------------------------------------------------------------------------------------


 ion  position               nearest neighbor table
   1  0.475  0.556  0.385-  18 1.55   7 2.39   2 2.39   3 2.39
   2  0.369  0.539  0.436-  23 1.55  24 1.55   8 2.39   1 2.39
   3  0.542  0.457  0.396-  17 1.55  16 1.55   9 2.39   1 2.39
   4  0.547  0.624  0.554-  19 1.55   7 2.39   5 2.39  10 2.39
   5  0.613  0.525  0.565-  15 1.55  14 1.55   4 2.39   9 2.39
   6  0.451  0.416  0.564-  12 1.55  11 1.55   8 2.39   9 2.39
   7  0.531  0.648  0.437-  25 1.55  26 1.55   4 2.39   1 2.39
   8  0.385  0.515  0.552-  22 1.55  10 2.39   6 2.39   2 2.39
   9  0.557  0.433  0.512-  13 1.55   3 2.39   5 2.39   6 2.39
  10  0.440  0.606  0.605-  20 1.55  21 1.55   8 2.39   4 2.39
  11  0.415  0.357  0.529-   6 1.55
  12  0.461  0.400  0.639-   6 1.55
  13  0.600  0.369  0.520-   9 1.55
  14  0.682  0.536  0.531-   5 1.55
  15  0.623  0.509  0.640-   5 1.55
  16  0.611  0.469  0.363-   3 1.55
  17  0.506  0.398  0.362-   3 1.55
  18  0.465  0.572  0.309-   1 1.55
  19  0.583  0.683  0.588-   4 1.55
  20  0.451  0.590  0.680-  10 1.55
  21  0.397  0.670  0.598-  10 1.55
  22  0.316  0.504  0.586-   8 1.55
  23  0.333  0.479  0.402-   2 1.55
  24  0.326  0.603  0.429-   2 1.55
  25  0.488  0.712  0.430-   7 1.55
  26  0.600  0.659  0.404-   7 1.55
 
  LATTYP: Found a simple cubic cell.
 ALAT       =    20.0000000000
  
  Lattice vectors:
  
 A1 = (  20.0000000000,   0.0000000000,   0.0000000000)
 A2 = (   0.0000000000,  20.0000000000,   0.0000000000)
 A3 = (   0.0000000000,   0.0000000000,  20.0000000000)


Analysis of symmetry for initial positions (statically):
=====================================================================
 Subroutine PRICEL returns:
 Original cell was already a primitive cell.
 

 Routine SETGRP: Setting up the symmetry group for a 
 simple cubic supercell.


 Subroutine GETGRP returns: Found  1 space group operations
 (whereof  1 operations were pure point group operations)
 out of a pool of 48 trial point group operations.


The static configuration has the point symmetry C_1 .


Analysis of symmetry for dynamics (positions and initial velocities):
=====================================================================
 Subroutine PRICEL returns:
 Original cell was already a primitive cell.
 

 Routine SETGRP: Setting up the symmetry group for a 
 simple cubic supercell.


 Subroutine GETGRP returns: Found  1 space group operations
 (whereof  1 operations were pure point group operations)
 out of a pool of 48 trial point group operations.


The dynamic configuration has the point symmetry C_1 .


 Subroutine INISYM returns: Found  1 space group operations
 (whereof  1 operations are pure point group operations),
 and found     1 'primitive' translations

 
 
 KPOINTS: Automatic mesh                          

Automatic generation of k-mesh.
Space group operators:
 irot       det(A)        alpha          n_x          n_y          n_z        tau_x        tau_y        tau_z
    1     1.000000     0.000000     1.000000     0.000000     0.000000     0.000000     0.000000     0.000000
 
 Subroutine IBZKPT returns following result:
 ===========================================
 
 Found      1 irreducible k-points:
 
 Following reciprocal coordinates:
            Coordinates               Weight
  0.000000  0.000000  0.000000      1.000000
 
 Following cartesian coordinates:
            Coordinates               Weight
  0.000000  0.000000  0.000000      1.000000
 


--------------------------------------------------------------------------------------------------------




 Dimension of arrays:
   k-points           NKPTS =      1   k-points in BZ     NKDIM =      1   number of bands    NBANDS=     42
   number of dos      NEDOS =    301   number of ions     NIONS =     26
   non local maximal  LDIM  =      5   non local SUM 2l+1 LMDIM =     13
   total plane-waves  NPLWV = 941192
   max r-space proj   IRMAX =      1   max aug-charges    IRDMAX=   6593
   dimension x,y,z NGX =    98 NGY =   98 NGZ =   98
   dimension x,y,z NGXF=   196 NGYF=  196 NGZF=  196
   support grid    NGXF=   196 NGYF=  196 NGZF=  196
   ions per type =               6   4  16
   NGX,Y,Z   is equivalent  to a cutoff of   8.15,  8.15,  8.15 a.u.
   NGXF,Y,Z  is equivalent  to a cutoff of  16.29, 16.29, 16.29 a.u.

 SYSTEM =  SiGe                                    
 POSCAR =  SiGeH16                                 

 Startparameter for this run:
   NWRITE =      2    write-flag & timer
   PREC   = normal    normal or accurate (medium, high low for compatibility)
   ISTART =      0    job   : 0-new  1-cont  2-samecut
   ICHARG =      2    charge: 1-file 2-atom 10-const
   ISPIN  =      1    spin polarized calculation?
   LNONCOLLINEAR =      F non collinear calculations
   LSORBIT =      F    spin-orbit coupling
   INIWAV =      1    electr: 0-lowe 1-rand  2-diag
   LASPH  =      F    aspherical Exc in radial PAW
   METAGGA=      F    non-selfconsistent MetaGGA calc.

 Electronic Relaxation 1
   ENCUT  =  400.0 eV  29.40 Ry    5.42 a.u.  32.61 32.61 32.61*2*pi/ulx,y,z
   ENINI  =  400.0     initial cutoff
   ENAUG  =  400.0 eV  augmentation charge cutoff
   NELM   =     60;   NELMIN=  2; NELMDL= -5     # of ELM steps 
   EDIFF  = 0.1E-05   stopping-criterion for ELM
   LREAL  =      F    real-space projection
   NLSPLINE    = F    spline interpolate recip. space projectors
   LCOMPAT=      F    compatible to vasp.4.4
   GGA_COMPAT  = T    GGA compatible to vasp.4.4-vasp.4.6
   LMAXPAW     = -100 max onsite density
   LMAXMIX     =    2 max onsite mixed and CHGCAR
   VOSKOWN=      0    Vosko Wilk Nusair interpolation
   ROPT   =    0.00000   0.00000   0.00000
 Ionic relaxation
   EDIFFG = -.2E-01   stopping-criterion for IOM
   NSW    =    200    number of steps for IOM
   NBLOCK =      1;   KBLOCK =    200    inner block; outer block 
   IBRION =      2    ionic relax: 0-MD 1-quasi-New 2-CG
   NFREE  =      1    steps in history (QN), initial steepest desc. (CG)
   ISIF   =      2    stress and relaxation
   IWAVPR =     11    prediction:  0-non 1-charg 2-wave 3-comb
   ISYM   =      2    0-nonsym 1-usesym 2-fastsym
   LCORR  =      T    Harris-Foulkes like correction to forces

   POTIM  = 0.5000    time-step for ionic-motion
   TEIN   =    0.0    initial temperature
   TEBEG  =    0.0;   TEEND  =   0.0 temperature during run
   SMASS  =  -3.00    Nose mass-parameter (am)
   estimated Nose-frequenzy (Omega)   =  0.10E-29 period in steps =****** mass=  -0.914E-26a.u.
   SCALEE = 1.0000    scale energy and forces
   NPACO  =    256;   APACO  = 16.0  distance and # of slots for P.C.
   PSTRESS=    0.0 pullay stress

  Mass of Ions in am
   POMASS =  28.09 72.61  1.00
  Ionic Valenz
   ZVAL   =   4.00  4.00  1.00
  Atomic Wigner-Seitz radii
   RWIGS  =  -1.00 -1.00 -1.00
  virtual crystal weights 
   VCA    =   1.00  1.00  1.00
   NELECT =      56.0000    total number of electrons
   NUPDOWN=      -1.0000    fix difference up-down

 DOS related values:
   EMIN   =  10.00;   EMAX   =-10.00  energy-range for DOS
   EFERMI =   0.00
   ISMEAR =     0;   SIGMA  =   0.20  broadening in eV -4-tet -1-fermi 0-gaus

 Electronic relaxation 2 (details)
   IALGO  =     38    algorithm
   LDIAG  =      T    sub-space diagonalisation (order eigenvalues)
   LSUBROT=      F    optimize rotation matrix (better conditioning)
   TURBO    =      0    0=normal 1=particle mesh
   IRESTART =      0    0=no restart 2=restart with 2 vectors
   NREBOOT  =      0    no. of reboots
   NMIN     =      0    reboot dimension
   EREF     =   0.00    reference energy to select bands
   IMIX   =      4    mixing-type and parameters
     AMIX     =   0.40;   BMIX     =  1.00
     AMIX_MAG =   1.60;   BMIX_MAG =  1.00
     AMIN     =   0.10
     WC   =   100.;   INIMIX=   1;  MIXPRE=   1;  MAXMIX= -45

 Intra band minimization:
   WEIMIN = 0.0010     energy-eigenvalue tresh-hold
   EBREAK =  0.60E-08  absolut break condition
   DEPER  =   0.30     relativ break condition  

   TIME   =   0.40     timestep for ELM

  volume/ion in A,a.u.               =     307.69      2076.41
  Fermi-wavevector in a.u.,A,eV,Ry     =   0.313166  0.591797  1.334361  0.098073
  Thomas-Fermi vector in A             =   1.193276
 
 Write flags
   LWAVE        =      T    write WAVECAR
   LDOWNSAMPLE  =      F    k-point downsampling of WAVECAR
   LCHARG       =      T    write CHGCAR
   LVTOT        =      F    write LOCPOT, total local potential
   LVHAR        =      F    write LOCPOT, Hartree potential only
   LELF         =      F    write electronic localiz. function (ELF)
   LORBIT       =      0    0 simple, 1 ext, 2 COOP (PROOUT), +10 PAW based schemes


 Dipole corrections
   LMONO  =      F    monopole corrections only (constant potential shift)
   LDIPOL =      F    correct potential (dipole corrections)
   IDIPOL =      0    1-x, 2-y, 3-z, 4-all directions 
   EPSILON=  1.0000000 bulk dielectric constant

 Exchange correlation treatment:
   GGA     =    --    GGA type
   LEXCH   =     8    internal setting for exchange type
   VOSKOWN=      0    Vosko Wilk Nusair interpolation
   LHFCALC =     F    Hartree Fock is set to
   LHFONE  =     F    Hartree Fock one center treatment
   AEXX    =    0.0000 exact exchange contribution

 Linear response parameters
   LEPSILON=     F    determine dielectric tensor
   LRPA    =     F    only Hartree local field effects (RPA)
   LNABLA  =     F    use nabla operator in PAW spheres
   LVEL    =     F    velocity operator in full k-point grid
   LINTERFAST=   F  fast interpolation
   KINTER  =     0    interpolate to denser k-point grid
   CSHIFT  =0.1000    complex shift for real part using Kramers Kronig
   OMEGAMAX=  -1.0    maximum frequency
   DEG_THRESHOLD= 0.2000000E-02 threshold for treating states as degnerate
   RTIME   =   -0.100 relaxation time in fs
  (WPLASMAI=    0.000 imaginary part of plasma frequency in eV, 0.658/RTIME)
   DFIELD  = 0.0000000 0.0000000 0.0000000 field for delta impulse in time
 
 Orbital magnetization related:
   ORBITALMAG=     F  switch on orbital magnetization
   LCHIMAG   =     F  perturbation theory with respect to B field
   DQ        =  0.001000  dq finite difference perturbation B field
   LLRAUG    =     F  two centre corrections for induced B field



--------------------------------------------------------------------------------------------------------


 conjugate gradient relaxation of ions
 charge density and potential will be updated during run
 non-spin polarized calculation
 Variant of blocked Davidson
 Davidson routine will perform the subspace rotation
 perform sub-space diagonalisation
    after iterative eigenvector-optimisation
 modified Broyden-mixing scheme, WC =      100.0
 initial mixing is a Kerker type mixing with AMIX =  0.4000 and BMIX =      1.0000
 Hartree-type preconditioning will be used
 using additional bands           14
 reciprocal scheme for non local part
 use partial core corrections
 calculate Harris-corrections to forces 
   (improved forces if not selfconsistent)
 use gradient corrections 
 use of overlap-Matrix (Vanderbilt PP)
 Gauss-broadening in eV      SIGMA  =   0.20


--------------------------------------------------------------------------------------------------------


  energy-cutoff  :      400.00
  volume of cell :     8000.00
      direct lattice vectors                 reciprocal lattice vectors
    20.000000000  0.000000000  0.000000000     0.050000000  0.000000000  0.000000000
     0.000000000 20.000000000  0.000000000     0.000000000  0.050000000  0.000000000
     0.000000000  0.000000000 20.000000000     0.000000000  0.000000000  0.050000000

  length of vectors
    20.000000000 20.000000000 20.000000000     0.050000000  0.050000000  0.050000000


 
 k-points in units of 2pi/SCALE and weight: Automatic mesh                          
   0.00000000  0.00000000  0.00000000       1.000
 
 k-points in reciprocal lattice and weights: Automatic mesh                          
   0.00000000  0.00000000  0.00000000       1.000
 
 position of ions in fractional coordinates (direct lattice) 
   0.47547100  0.55626000  0.38465300
   0.36907800  0.53906000  0.43641200
   0.54179100  0.45744600  0.39613600
   0.54669200  0.62364400  0.55351800
   0.61299700  0.52481700  0.56496600
   0.45095700  0.41593600  0.56388300
   0.53111600  0.64794100  0.43749600
   0.38461900  0.51474100  0.55243500
   0.55736800  0.43311000  0.51215000
   0.44028400  0.60643000  0.60524300
   0.41490100  0.35665000  0.52940300
   0.46117000  0.40042600  0.63910800
   0.60034800  0.36907000  0.51957800
   0.68182700  0.53600700  0.53118700
   0.62280400  0.50903400  0.64018900
   0.61080000  0.46880600  0.36278200
   0.50550800  0.39805500  0.36207700
   0.46538400  0.57201900  0.30946400
   0.58275500  0.68306700  0.58775000
   0.45052500  0.59044300  0.68036400
   0.39732000  0.67044900  0.59753500
   0.31566200  0.50359800  0.58596500
   0.33322800  0.47946500  0.40225200
   0.32629100  0.60324700  0.42912600
   0.48792300  0.71185500  0.43020800
   0.60015100  0.65882400  0.40403700
 
 position of ions in cartesian coordinates  (Angst):
   9.50942000 11.12520000  7.69306000
   7.38156000 10.78120000  8.72824000
  10.83582000  9.14892000  7.92272000
  10.93384000 12.47288000 11.07036000
  12.25994000 10.49634000 11.29932000
   9.01914000  8.31872000 11.27766000
  10.62232000 12.95882000  8.74992000
   7.69238000 10.29482000 11.04870000
  11.14736000  8.66220000 10.24300000
   8.80568000 12.12860000 12.10486000
   8.29802000  7.13300000 10.58806000
   9.22340000  8.00852000 12.78216000
  12.00696000  7.38140000 10.39156000
  13.63654000 10.72014000 10.62374000
  12.45608000 10.18068000 12.80378000
  12.21600000  9.37612000  7.25564000
  10.11016000  7.96110000  7.24154000
   9.30768000 11.44038000  6.18928000
  11.65510000 13.66134000 11.75500000
   9.01050000 11.80886000 13.60728000
   7.94640000 13.40898000 11.95070000
   6.31324000 10.07196000 11.71930000
   6.66456000  9.58930000  8.04504000
   6.52582000 12.06494000  8.58252000
   9.75846000 14.23710000  8.60416000
  12.00302000 13.17648000  8.08074000
 


--------------------------------------------------------------------------------------------------------


 k-point  1 :   0.0000 0.0000 0.0000  plane waves:  145165

 maximum and minimum number of plane-waves per node :     24209    24180

 maximum number of plane-waves:    145165
 maximum index in each direction: 
   IXMAX=   32   IYMAX=   32   IZMAX=   32
   IXMIN=  -32   IYMIN=  -32   IZMIN=  -32


 parallel 3D FFT for wavefunctions:
    minimum data exchange during FFTs selected (reduces bandwidth)
 parallel 3D FFT for charge:
    minimum data exchange during FFTs selected (reduces bandwidth)


 total amount of memory used by VASP MPI-rank0   131440. kBytes
=======================================================================

   base      :      30000. kBytes
   nonl-proj :      17624. kBytes
   fftplans  :      26957. kBytes
   grid      :      48673. kBytes
   one-center:         40. kBytes
   wavefun   :       8146. kBytes
 
     INWAV:  cpu time    0.0000: real time    0.0000
 Broyden mixing: mesh for mixing (old mesh)
   NGX = 65   NGY = 65   NGZ = 65
  (NGX  =196   NGY  =196   NGZ  =196)
  gives a total of 274625 points

 initial charge density was supplied:
 charge density of overlapping atoms calculated
 number of electron      56.0000000 magnetization 
 keeping initial charge density in first step


--------------------------------------------------------------------------------------------------------


 Maximum index for augmentation-charges          565 (set IRDMAX)


--------------------------------------------------------------------------------------------------------


 First call to EWALD:  gamma=   0.089
 Maximum number of real-space cells 3x 3x 3
 Maximum number of reciprocal cells 3x 3x 3

    FEWALD:  cpu time    0.0040: real time    0.0038


--------------------------------------- Iteration      1(   1)  ---------------------------------------


    POTLOK:  cpu time    1.7397: real time    1.7661
    SETDIJ:  cpu time    0.0080: real time    0.0080
     EDDAV:  cpu time   10.7214: real time   10.7178
       DOS:  cpu time    0.0000: real time    0.0003
    --------------------------------------------
      LOOP:  cpu time   12.4691: real time   12.4923

 eigenvalue-minimisations  :   116
 total energy-change (2. order) : 0.2012039E+03  (-0.1049026E+04)
 number of electron      56.0000000 magnetization 
 augmentation part       56.0000000 magnetization 

 Free energy of the ion-electron system (eV)
  ---------------------------------------------------
  alpha Z        PSCENC =         1.96423985
  Ewald energy   TEWEN  =      2629.98113996
  -Hartree energ DENC   =     -3442.39041907
  -exchange      EXHF   =         0.00000000
  -V(xc)+E(xc)   XCENC  =       -53.16632957
  PAW double counting   =       915.46801746     -752.10009045
  entropy T*S    EENTRO =        -0.44126762
  eigenvalues    EBANDS =      -336.14663275
  atomic energy  EATOM  =      1238.03527989
  Solvation  Ediel_sol  =         0.00000000
  ---------------------------------------------------
  free energy    TOTEN  =       201.20393770 eV

  energy without entropy =      201.64520532  energy(sigma->0) =      201.42457151


--------------------------------------------------------------------------------------------------------




--------------------------------------- Iteration      1(   2)  ---------------------------------------


     EDDAV:  cpu time   12.2211: real time   12.2178
       DOS:  cpu time    0.0000: real time    0.0002
    --------------------------------------------
      LOOP:  cpu time   12.2211: real time   12.2181

 eigenvalue-minimisations  :   136
 total energy-change (2. order) :-0.2285776E+03  (-0.2141805E+03)
 number of electron      56.0000000 magnetization 
 augmentation part       56.0000000 magnetization 

 Free energy of the ion-electron system (eV)
  ---------------------------------------------------
  alpha Z        PSCENC =         1.96423985
  Ewald energy   TEWEN  =      2629.98113996
  -Hartree energ DENC   =     -3442.39041907
  -exchange      EXHF   =         0.00000000
  -V(xc)+E(xc)   XCENC  =       -53.16632957
  PAW double counting   =       915.46801746     -752.10009045
  entropy T*S    EENTRO =        -0.00000000
  eigenvalues    EBANDS =      -565.16554781
  atomic energy  EATOM  =      1238.03527989
  Solvation  Ediel_sol  =         0.00000000
  ---------------------------------------------------
  free energy    TOTEN  =       -27.37370974 eV

  energy without entropy =      -27.37370974  energy(sigma->0) =      -27.37370974


--------------------------------------------------------------------------------------------------------




--------------------------------------- Iteration      1(   3)  ---------------------------------------


     EDDAV:  cpu time   10.5694: real time   10.6284
       DOS:  cpu time    0.0010: real time    0.0003
    --------------------------------------------
      LOOP:  cpu time   10.5704: real time   10.6287

 eigenvalue-minimisations  :   112
 total energy-change (2. order) :-0.7541514E+02  (-0.7523915E+02)
 number of electron      56.0000000 magnetization 
 augmentation part       56.0000000 magnetization 

 Free energy of the ion-electron system (eV)
  ---------------------------------------------------
  alpha Z        PSCENC =         1.96423985
  Ewald energy   TEWEN  =      2629.98113996
  -Hartree energ DENC   =     -3442.39041907
  -exchange      EXHF   =         0.00000000
  -V(xc)+E(xc)   XCENC  =       -53.16632957
  PAW double counting   =       915.46801746     -752.10009045
  entropy T*S    EENTRO =        -0.00000000
  eigenvalues    EBANDS =      -640.58068600
  atomic energy  EATOM  =      1238.03527989
  Solvation  Ediel_sol  =         0.00000000
  ---------------------------------------------------
  free energy    TOTEN  =      -102.78884793 eV

  energy without entropy =     -102.78884793  energy(sigma->0) =     -102.78884793


--------------------------------------------------------------------------------------------------------




--------------------------------------- Iteration      1(   4)  ---------------------------------------


     EDDAV:  cpu time    9.8565: real time    9.8584
       DOS:  cpu time    0.0000: real time    0.0003
    --------------------------------------------
      LOOP:  cpu time    9.8565: real time    9.8587

 eigenvalue-minimisations  :   104
 total energy-change (2. order) :-0.4326547E+01  (-0.4310163E+01)
 number of electron      56.0000000 magnetization 
 augmentation part       56.0000000 magnetization 

 Free energy of the ion-electron system (eV)
  ---------------------------------------------------
  alpha Z        PSCENC =         1.96423985
  Ewald energy   TEWEN  =      2629.98113996
  -Hartree energ DENC   =     -3442.39041907
  -exchange      EXHF   =         0.00000000
  -V(xc)+E(xc)   XCENC  =       -53.16632957
  PAW double counting   =       915.46801746     -752.10009045
  entropy T*S    EENTRO =        -0.00000000
  eigenvalues    EBANDS =      -644.90723322
  atomic energy  EATOM  =      1238.03527989
  Solvation  Ediel_sol  =         0.00000000
  ---------------------------------------------------
  free energy    TOTEN  =      -107.11539515 eV

  energy without entropy =     -107.11539515  energy(sigma->0) =     -107.11539515


--------------------------------------------------------------------------------------------------------




--------------------------------------- Iteration      1(   5)  ---------------------------------------


     EDDAV:  cpu time   11.6312: real time   11.6341
       DOS:  cpu time    0.0010: real time    0.0003
    CHARGE:  cpu time    0.4839: real time    0.4851
    MIXING:  cpu time    0.0420: real time    0.0426
    --------------------------------------------
      LOOP:  cpu time   12.1582: real time   12.1621

 eigenvalue-minimisations  :   128
 total energy-change (2. order) :-0.8288082E-01  (-0.8281571E-01)
 number of electron      56.0000015 magnetization 
 augmentation part       -3.5434629 magnetization 

 Broyden mixing:
  rms(total) = 0.15087E+01    rms(broyden)= 0.15086E+01
  rms(prec ) = 0.16050E+01
  weight for this iteration     100.00

 Free energy of the ion-electron system (eV)
  ---------------------------------------------------
  alpha Z        PSCENC =         1.96423985
  Ewald energy   TEWEN  =      2629.98113996
  -Hartree energ DENC   =     -3442.39041907
  -exchange      EXHF   =         0.00000000
  -V(xc)+E(xc)   XCENC  =       -53.16632957
  PAW double counting   =       915.46801746     -752.10009045
  entropy T*S    EENTRO =        -0.00000000
  eigenvalues    EBANDS =      -644.99011404
  atomic energy  EATOM  =      1238.03527989
  Solvation  Ediel_sol  =         0.00000000
  ---------------------------------------------------
  free energy    TOTEN  =      -107.19827597 eV

  energy without entropy =     -107.19827597  energy(sigma->0) =     -107.19827597


--------------------------------------------------------------------------------------------------------




--------------------------------------- Iteration      1(   6)  ---------------------------------------


    POTLOK:  cpu time    1.6927: real time    1.6940
    SETDIJ:  cpu time    0.0080: real time    0.0075
     EDDAV:  cpu time    9.2156: real time    9.2631
       DOS:  cpu time    0.0000: real time    0.0003
    CHARGE:  cpu time    0.4979: real time    0.4974
    MIXING:  cpu time    0.0450: real time    0.0455
    --------------------------------------------
      LOOP:  cpu time   11.4593: real time   11.5078

 eigenvalue-minimisations  :    96
 total energy-change (2. order) : 0.3237598E+01  (-0.1600714E+00)
 number of electron      56.0000014 magnetization 
 augmentation part       -3.5447446 magnetization 

 Broyden mixing:
  rms(total) = 0.87474E+00    rms(broyden)= 0.87474E+00
  rms(prec ) = 0.93346E+00
  weight for this iteration     100.00

 eigenvalues of (default mixing * dielectric matrix)
  average eigenvalue GAMMA=   2.3098
  2.3098

 Free energy of the ion-electron system (eV)
  ---------------------------------------------------
  alpha Z        PSCENC =         1.96423985
  Ewald energy   TEWEN  =      2629.98113996
  -Hartree energ DENC   =     -3473.81729052
  -exchange      EXHF   =         0.00000000
  -V(xc)+E(xc)   XCENC  =       -49.52773449
  PAW double counting   =      1846.02512119    -1683.42183554
  entropy T*S    EENTRO =        -0.00000000
  eigenvalues    EBANDS =      -613.19959826
  atomic energy  EATOM  =      1238.03527989
  Solvation  Ediel_sol  =         0.00000000
  ---------------------------------------------------
  free energy    TOTEN  =      -103.96067792 eV

  energy without entropy =     -103.96067792  energy(sigma->0) =     -103.96067792


--------------------------------------------------------------------------------------------------------




--------------------------------------- Iteration      1(   7)  ---------------------------------------


    POTLOK:  cpu time    1.7477: real time    1.7481
    SETDIJ:  cpu time    0.0080: real time    0.0079
     EDDAV:  cpu time    9.9185: real time    9.9215
       DOS:  cpu time    0.0000: real time    0.0003
    CHARGE:  cpu time    0.4839: real time    0.4835
    MIXING:  cpu time    0.0460: real time    0.0469
    --------------------------------------------
      LOOP:  cpu time   12.2041: real time   12.2082

 eigenvalue-minimisations  :   104
 total energy-change (2. order) : 0.1696971E+01  (-0.4142148E+00)
 number of electron      56.0000012 magnetization 
 augmentation part       -3.5437618 magnetization 

 Broyden mixing:
  rms(total) = 0.12259E+00    rms(broyden)= 0.12244E+00
  rms(prec ) = 0.15370E+00
  weight for this iteration     100.00

 eigenvalues of (default mixing * dielectric matrix)
  average eigenvalue GAMMA=   1.8364
  1.6927  1.9801

 Free energy of the ion-electron system (eV)
  ---------------------------------------------------
  alpha Z        PSCENC =         1.96423985
  Ewald energy   TEWEN  =      2629.98113996
  -Hartree energ DENC   =     -3529.92517409
  -exchange      EXHF   =         0.00000000
  -V(xc)+E(xc)   XCENC  =       -43.74177072
  PAW double counting   =      3901.52942104    -3739.95395741
  entropy T*S    EENTRO =        -0.00000000
  eigenvalues    EBANDS =      -560.15288588
  atomic energy  EATOM  =      1238.03527989
  Solvation  Ediel_sol  =         0.00000000
  ---------------------------------------------------
  free energy    TOTEN  =      -102.26370736 eV

  energy without entropy =     -102.26370736  energy(sigma->0) =     -102.26370736


--------------------------------------------------------------------------------------------------------




--------------------------------------- Iteration      1(   8)  ---------------------------------------


    POTLOK:  cpu time    1.6997: real time    1.6985
    SETDIJ:  cpu time    0.0080: real time    0.0085
     EDDAV:  cpu time    9.8775: real time    9.9089
       DOS:  cpu time    0.0010: real time    0.0003
    CHARGE:  cpu time    0.4679: real time    0.4685
    MIXING:  cpu time    0.0480: real time    0.0487
    --------------------------------------------
      LOOP:  cpu time   12.1022: real time   12.1335

 eigenvalue-minimisations  :   104
 total energy-change (2. order) : 0.5141615E-01  (-0.2731224E-01)
 number of electron      56.0000012 magnetization 
 augmentation part       -3.5406089 magnetization 

 Broyden mixing:
  rms(total) = 0.62250E-01    rms(broyden)= 0.62235E-01
  rms(prec ) = 0.81596E-01
  weight for this iteration     100.00

 eigenvalues of (default mixing * dielectric matrix)
  average eigenvalue GAMMA=   1.9741
  2.6285  1.6469  1.6469

 Free energy of the ion-electron system (eV)
  ---------------------------------------------------
  alpha Z        PSCENC =         1.96423985
  Ewald energy   TEWEN  =      2629.98113996
  -Hartree energ DENC   =     -3537.66101713
  -exchange      EXHF   =         0.00000000
  -V(xc)+E(xc)   XCENC  =       -43.78973677
  PAW double counting   =      3910.94454434    -3749.28340370
  entropy T*S    EENTRO =        -0.00000000
  eigenvalues    EBANDS =      -552.40333764
  atomic energy  EATOM  =      1238.03527989
  Solvation  Ediel_sol  =         0.00000000
  ---------------------------------------------------
  free energy    TOTEN  =      -102.21229121 eV

  energy without entropy =     -102.21229121  energy(sigma->0) =     -102.21229121


--------------------------------------------------------------------------------------------------------




--------------------------------------- Iteration      1(   9)  ---------------------------------------


    POTLOK:  cpu time    1.7587: real time    1.7622
    SETDIJ:  cpu time    0.0080: real time    0.0075
     EDDAV:  cpu time   11.0883: real time   11.0892
       DOS:  cpu time    0.0000: real time    0.0003
    CHARGE:  cpu time    0.4889: real time    0.4890
    MIXING:  cpu time    0.0520: real time    0.0518
    --------------------------------------------
      LOOP:  cpu time   13.3960: real time   13.4000

 eigenvalue-minimisations  :   120
 total energy-change (2. order) : 0.3554842E-01  (-0.7811432E-02)
 number of electron      56.0000012 magnetization 
 augmentation part       -3.5275473 magnetization 

 Broyden mixing:
  rms(total) = 0.34600E-01    rms(broyden)= 0.34599E-01
  rms(prec ) = 0.45935E-01
  weight for this iteration     100.00

 eigenvalues of (default mixing * dielectric matrix)
  average eigenvalue GAMMA=   1.7420
  2.5000  1.8365  1.8365  0.7951

 Free energy of the ion-electron system (eV)
  ---------------------------------------------------
  alpha Z        PSCENC =         1.96423985
  Ewald energy   TEWEN  =      2629.98113996
  -Hartree energ DENC   =     -3549.44951782
  -exchange      EXHF   =         0.00000000
  -V(xc)+E(xc)   XCENC  =       -43.10789123
  PAW double counting   =      4044.04027901    -3882.41152208
  entropy T*S    EENTRO =        -0.00000000
  eigenvalues    EBANDS =      -541.22875036
  atomic energy  EATOM  =      1238.03527989
  Solvation  Ediel_sol  =         0.00000000
  ---------------------------------------------------
  free energy    TOTEN  =      -102.17674279 eV

  energy without entropy =     -102.17674279  energy(sigma->0) =     -102.17674279


--------------------------------------------------------------------------------------------------------




--------------------------------------- Iteration      1(  10)  ---------------------------------------


    POTLOK:  cpu time    1.7157: real time    1.7149
    SETDIJ:  cpu time    0.0080: real time    0.0077
     EDDAV:  cpu time   10.4954: real time   10.4923
       DOS:  cpu time    0.0000: real time    0.0003
    CHARGE:  cpu time    0.4929: real time    0.4916
    MIXING:  cpu time    0.0570: real time    0.0571
    --------------------------------------------
      LOOP:  cpu time   12.7691: real time   12.7639

 eigenvalue-minimisations  :   112
 total energy-change (2. order) :-0.6275426E-04  (-0.2988877E-03)
 number of electron      56.0000012 magnetization 
 augmentation part       -3.5266266 magnetization 

 Broyden mixing:
  rms(total) = 0.16470E-01    rms(broyden)= 0.16469E-01
  rms(prec ) = 0.29485E-01
  weight for this iteration     100.00

 eigenvalues of (default mixing * dielectric matrix)
  average eigenvalue GAMMA=   1.8643
  2.8178  2.1338  1.0858  1.6420  1.6420

 Free energy of the ion-electron system (eV)
  ---------------------------------------------------
  alpha Z        PSCENC =         1.96423985
  Ewald energy   TEWEN  =      2629.98113996
  -Hartree energ DENC   =     -3551.52677093
  -exchange      EXHF   =         0.00000000
  -V(xc)+E(xc)   XCENC  =       -43.10272799
  PAW double counting   =      3966.65712769    -3804.98390281
  entropy T*S    EENTRO =        -0.00000000
  eigenvalues    EBANDS =      -539.20119120
  atomic energy  EATOM  =      1238.03527989
  Solvation  Ediel_sol  =         0.00000000
  ---------------------------------------------------
  free energy    TOTEN  =      -102.17680554 eV

  energy without entropy =     -102.17680554  energy(sigma->0) =     -102.17680554


--------------------------------------------------------------------------------------------------------




--------------------------------------- Iteration      1(  11)  ---------------------------------------


    POTLOK:  cpu time    1.7327: real time    1.7332
    SETDIJ:  cpu time    0.0080: real time    0.0079
     EDDAV:  cpu time    9.8565: real time    9.8527
       DOS:  cpu time    0.0000: real time    0.0003
    CHARGE:  cpu time    0.4999: real time    0.5005
    MIXING:  cpu time    0.0570: real time    0.0565
    --------------------------------------------
      LOOP:  cpu time   12.1542: real time   12.1511

 eigenvalue-minimisations  :   104
 total energy-change (2. order) : 0.4502673E-03  (-0.6952305E-03)
 number of electron      56.0000012 magnetization 
 augmentation part       -3.5256932 magnetization 

 Broyden mixing:
  rms(total) = 0.81963E-02    rms(broyden)= 0.81960E-02
  rms(prec ) = 0.14777E-01
  weight for this iteration     100.00

 eigenvalues of (default mixing * dielectric matrix)
  average eigenvalue GAMMA=   1.8456
  3.1348  2.5407  1.7368  1.7368  1.0538  0.8709

 Free energy of the ion-electron system (eV)
  ---------------------------------------------------
  alpha Z        PSCENC =         1.96423985
  Ewald energy   TEWEN  =      2629.98113996
  -Hartree energ DENC   =     -3558.39402486
  -exchange      EXHF   =         0.00000000
  -V(xc)+E(xc)   XCENC  =       -42.90591531
  PAW double counting   =      3922.25644662    -3760.54072934
  entropy T*S    EENTRO =        -0.00000000
  eigenvalues    EBANDS =      -532.57279208
  atomic energy  EATOM  =      1238.03527989
  Solvation  Ediel_sol  =         0.00000000
  ---------------------------------------------------
  free energy    TOTEN  =      -102.17635527 eV

  energy without entropy =     -102.17635527  energy(sigma->0) =     -102.17635527


--------------------------------------------------------------------------------------------------------




--------------------------------------- Iteration      1(  12)  ---------------------------------------


    POTLOK:  cpu time    1.7377: real time    1.7484
    SETDIJ:  cpu time    0.0120: real time    0.0112
     EDDAV:  cpu time    9.2826: real time    9.2800
       DOS:  cpu time    0.0000: real time    0.0004
    CHARGE:  cpu time    0.4879: real time    0.4876
    MIXING:  cpu time    0.0600: real time    0.0609
    --------------------------------------------
      LOOP:  cpu time   11.5802: real time   11.5885

 eigenvalue-minimisations  :    96
 total energy-change (2. order) :-0.4184096E-02  (-0.9093879E-04)
 number of electron      56.0000012 magnetization 
 augmentation part       -3.5253747 magnetization 

 Broyden mixing:
  rms(total) = 0.58329E-02    rms(broyden)= 0.58329E-02
  rms(prec ) = 0.10315E-01
  weight for this iteration     100.00

 eigenvalues of (default mixing * dielectric matrix)
  average eigenvalue GAMMA=   2.0314
  4.3493  2.6024  2.2068  1.5583  1.5583  0.9723  0.9723

 Free energy of the ion-electron system (eV)
  ---------------------------------------------------
  alpha Z        PSCENC =         1.96423985
  Ewald energy   TEWEN  =      2629.98113996
  -Hartree energ DENC   =     -3560.54519635
  -exchange      EXHF   =         0.00000000
  -V(xc)+E(xc)   XCENC  =       -42.87174026
  PAW double counting   =      3911.88163252    -3750.16147396
  entropy T*S    EENTRO =        -0.00000000
  eigenvalues    EBANDS =      -530.46442103
  atomic energy  EATOM  =      1238.03527989
  Solvation  Ediel_sol  =         0.00000000
  ---------------------------------------------------
  free energy    TOTEN  =      -102.18053937 eV

  energy without entropy =     -102.18053937  energy(sigma->0) =     -102.18053937


--------------------------------------------------------------------------------------------------------




--------------------------------------- Iteration      1(  13)  ---------------------------------------


    POTLOK:  cpu time    1.7297: real time    1.7285
    SETDIJ:  cpu time    0.0080: real time    0.0083
     EDDAV:  cpu time    9.9105: real time    9.9068
       DOS:  cpu time    0.0000: real time    0.0003
    CHARGE:  cpu time    0.4809: real time    0.4804
    MIXING:  cpu time    0.0640: real time    0.0648
    --------------------------------------------
      LOOP:  cpu time   12.1931: real time   12.1890

 eigenvalue-minimisations  :   104
 total energy-change (2. order) :-0.4602722E-02  (-0.1965978E-03)
 number of electron      56.0000012 magnetization 
 augmentation part       -3.5252291 magnetization 

 Broyden mixing:
  rms(total) = 0.35306E-02    rms(broyden)= 0.35305E-02
  rms(prec ) = 0.53711E-02
  weight for this iteration     100.00

 eigenvalues of (default mixing * dielectric matrix)
  average eigenvalue GAMMA=   2.1758
  5.5762  2.8663  2.3317  1.8015  1.8015  1.1105  0.9591  0.9591

 Free energy of the ion-electron system (eV)
  ---------------------------------------------------
  alpha Z        PSCENC =         1.96423985
  Ewald energy   TEWEN  =      2629.98113996
  -Hartree energ DENC   =     -3563.49115268
  -exchange      EXHF   =         0.00000000
  -V(xc)+E(xc)   XCENC  =       -42.81774332
  PAW double counting   =      3915.20252708    -3753.48813360
  entropy T*S    EENTRO =        -0.00000000
  eigenvalues    EBANDS =      -527.57129927
  atomic energy  EATOM  =      1238.03527989
  Solvation  Ediel_sol  =         0.00000000
  ---------------------------------------------------
  free energy    TOTEN  =      -102.18514209 eV

  energy without entropy =     -102.18514209  energy(sigma->0) =     -102.18514209


--------------------------------------------------------------------------------------------------------




--------------------------------------- Iteration      1(  14)  ---------------------------------------


    POTLOK:  cpu time    1.7287: real time    1.7306
    SETDIJ:  cpu time    0.0080: real time    0.0081
     EDDAV:  cpu time   10.4454: real time   10.4500
       DOS:  cpu time    0.0000: real time    0.0003
    CHARGE:  cpu time    0.4869: real time    0.4865
    MIXING:  cpu time    0.0710: real time    0.0716
    --------------------------------------------
      LOOP:  cpu time   12.7401: real time   12.7470

 eigenvalue-minimisations  :   112
 total energy-change (2. order) :-0.4065714E-02  (-0.3534726E-04)
 number of electron      56.0000012 magnetization 
 augmentation part       -3.5246955 magnetization 

 Broyden mixing:
  rms(total) = 0.16003E-02    rms(broyden)= 0.16003E-02
  rms(prec ) = 0.28276E-02
  weight for this iteration     100.00

 eigenvalues of (default mixing * dielectric matrix)
  average eigenvalue GAMMA=   2.2597
  6.4709  2.8067  2.8067  1.9278  1.6512  1.6512  1.1157  0.9535  0.9535

 Free energy of the ion-electron system (eV)
  ---------------------------------------------------
  alpha Z        PSCENC =         1.96423985
  Ewald energy   TEWEN  =      2629.98113996
  -Hartree energ DENC   =     -3564.32526903
  -exchange      EXHF   =         0.00000000
  -V(xc)+E(xc)   XCENC  =       -42.82572338
  PAW double counting   =      3915.98975316    -3754.27785387
  entropy T*S    EENTRO =        -0.00000000
  eigenvalues    EBANDS =      -526.73077438
  atomic energy  EATOM  =      1238.03527989
  Solvation  Ediel_sol  =         0.00000000
  ---------------------------------------------------
  free energy    TOTEN  =      -102.18920781 eV

  energy without entropy =     -102.18920781  energy(sigma->0) =     -102.18920781


--------------------------------------------------------------------------------------------------------




--------------------------------------- Iteration      1(  15)  ---------------------------------------


    POTLOK:  cpu time    1.7217: real time    1.7204
    SETDIJ:  cpu time    0.0080: real time    0.0079
     EDDAV:  cpu time   10.4594: real time   10.4567
       DOS:  cpu time    0.0010: real time    0.0003
    CHARGE:  cpu time    0.4829: real time    0.4829
    MIXING:  cpu time    0.0770: real time    0.0769
    --------------------------------------------
      LOOP:  cpu time   12.7501: real time   12.7451

 eigenvalue-minimisations  :   112
 total energy-change (2. order) :-0.4347229E-02  (-0.4944161E-04)
 number of electron      56.0000012 magnetization 
 augmentation part       -3.5244040 magnetization 

 Broyden mixing:
  rms(total) = 0.15087E-02    rms(broyden)= 0.15086E-02
  rms(prec ) = 0.20062E-02
  weight for this iteration     100.00

 eigenvalues of (default mixing * dielectric matrix)
  average eigenvalue GAMMA=   2.2959
  6.7081  3.6958  2.6099  1.9702  1.9702  1.8549  1.2684  0.9358  0.9727  0.9727

 Free energy of the ion-electron system (eV)
  ---------------------------------------------------
  alpha Z        PSCENC =         1.96423985
  Ewald energy   TEWEN  =      2629.98113996
  -Hartree energ DENC   =     -3564.57276598
  -exchange      EXHF   =         0.00000000
  -V(xc)+E(xc)   XCENC  =       -42.83417616
  PAW double counting   =      3920.75338815    -3759.04209389
  entropy T*S    EENTRO =        -0.00000000
  eigenvalues    EBANDS =      -526.47856686
  atomic energy  EATOM  =      1238.03527989
  Solvation  Ediel_sol  =         0.00000000
  ---------------------------------------------------
  free energy    TOTEN  =      -102.19355503 eV

  energy without entropy =     -102.19355503  energy(sigma->0) =     -102.19355503


--------------------------------------------------------------------------------------------------------




--------------------------------------- Iteration      1(  16)  ---------------------------------------


    POTLOK:  cpu time    1.7167: real time    1.7165
    SETDIJ:  cpu time    0.0160: real time    0.0164
     EDDAV:  cpu time   10.4274: real time   10.4236
       DOS:  cpu time    0.0010: real time    0.0008
    CHARGE:  cpu time    0.4869: real time    0.4873
    MIXING:  cpu time    0.0870: real time    0.0865
    --------------------------------------------
      LOOP:  cpu time   12.7351: real time   12.7311

 eigenvalue-minimisations  :   112
 total energy-change (2. order) :-0.1332979E-02  (-0.8040651E-05)
 number of electron      56.0000012 magnetization 
 augmentation part       -3.5246218 magnetization 

 Broyden mixing:
  rms(total) = 0.66879E-03    rms(broyden)= 0.66878E-03
  rms(prec ) = 0.10024E-02
  weight for this iteration     100.00

 eigenvalues of (default mixing * dielectric matrix)
  average eigenvalue GAMMA=   2.4076
  7.3420  4.6495  2.6264  2.6264  1.8064  1.8064  1.3668  1.3668  0.9612  0.9612
  0.9707

 Free energy of the ion-electron system (eV)
  ---------------------------------------------------
  alpha Z        PSCENC =         1.96423985
  Ewald energy   TEWEN  =      2629.98113996
  -Hartree energ DENC   =     -3564.68090278
  -exchange      EXHF   =         0.00000000
  -V(xc)+E(xc)   XCENC  =       -42.83329515
  PAW double counting   =      3920.37997121    -3758.66708720
  entropy T*S    EENTRO =        -0.00000000
  eigenvalues    EBANDS =      -526.37423380
  atomic energy  EATOM  =      1238.03527989
  Solvation  Ediel_sol  =         0.00000000
  ---------------------------------------------------
  free energy    TOTEN  =      -102.19488801 eV

  energy without entropy =     -102.19488801  energy(sigma->0) =     -102.19488801


--------------------------------------------------------------------------------------------------------




--------------------------------------- Iteration      1(  17)  ---------------------------------------


    POTLOK:  cpu time    1.7127: real time    1.7145
    SETDIJ:  cpu time    0.0080: real time    0.0079
     EDDAV:  cpu time    9.8745: real time    9.8832
       DOS:  cpu time    0.0010: real time    0.0006
    CHARGE:  cpu time    0.4849: real time    0.4853
    MIXING:  cpu time    0.0970: real time    0.0967
    --------------------------------------------
      LOOP:  cpu time   12.1781: real time   12.1882

 eigenvalue-minimisations  :   104
 total energy-change (2. order) :-0.1045867E-02  (-0.8567037E-05)
 number of electron      56.0000012 magnetization 
 augmentation part       -3.5247739 magnetization 

 Broyden mixing:
  rms(total) = 0.38993E-03    rms(broyden)= 0.38990E-03
  rms(prec ) = 0.52311E-03
  weight for this iteration     100.00

 eigenvalues of (default mixing * dielectric matrix)
  average eigenvalue GAMMA=   2.3755
  7.4673  4.8604  2.6287  2.6287  1.9621  1.9621  1.5149  1.5149  0.9748  0.9748
  1.0088  1.0088

 Free energy of the ion-electron system (eV)
  ---------------------------------------------------
  alpha Z        PSCENC =         1.96423985
  Ewald energy   TEWEN  =      2629.98113996
  -Hartree energ DENC   =     -3564.70237528
  -exchange      EXHF   =         0.00000000
  -V(xc)+E(xc)   XCENC  =       -42.83659358
  PAW double counting   =      3918.50809534    -3756.79398320
  entropy T*S    EENTRO =        -0.00000000
  eigenvalues    EBANDS =      -526.35173687
  atomic energy  EATOM  =      1238.03527989
  Solvation  Ediel_sol  =         0.00000000
  ---------------------------------------------------
  free energy    TOTEN  =      -102.19593388 eV

  energy without entropy =     -102.19593388  energy(sigma->0) =     -102.19593388


--------------------------------------------------------------------------------------------------------




--------------------------------------- Iteration      1(  18)  ---------------------------------------


    POTLOK:  cpu time    1.7127: real time    1.7144
    SETDIJ:  cpu time    0.0080: real time    0.0076
     EDDAV:  cpu time    9.9085: real time    9.9194
       DOS:  cpu time    0.0010: real time    0.0006
    CHARGE:  cpu time    0.4859: real time    0.4876
    MIXING:  cpu time    0.1060: real time    0.1057
    --------------------------------------------
      LOOP:  cpu time   12.2221: real time   12.2353

 eigenvalue-minimisations  :   104
 total energy-change (2. order) :-0.2918542E-03  (-0.8848344E-06)
 number of electron      56.0000012 magnetization 
 augmentation part       -3.5247548 magnetization 

 Broyden mixing:
  rms(total) = 0.19903E-03    rms(broyden)= 0.19902E-03
  rms(prec ) = 0.29214E-03
  weight for this iteration     100.00

 eigenvalues of (default mixing * dielectric matrix)
  average eigenvalue GAMMA=   2.4717
  8.1028  5.7108  3.1164  2.5944  2.3141  1.7856  1.7856  1.3878  1.3878  0.9671
  0.9671  1.0059  1.0059

 Free energy of the ion-electron system (eV)
  ---------------------------------------------------
  alpha Z        PSCENC =         1.96423985
  Ewald energy   TEWEN  =      2629.98113996
  -Hartree energ DENC   =     -3564.73060837
  -exchange      EXHF   =         0.00000000
  -V(xc)+E(xc)   XCENC  =       -42.83625985
  PAW double counting   =      3918.34279212    -3756.62923941
  entropy T*S    EENTRO =        -0.00000000
  eigenvalues    EBANDS =      -526.32356992
  atomic energy  EATOM  =      1238.03527989
  Solvation  Ediel_sol  =         0.00000000
  ---------------------------------------------------
  free energy    TOTEN  =      -102.19622574 eV

  energy without entropy =     -102.19622574  energy(sigma->0) =     -102.19622574


--------------------------------------------------------------------------------------------------------




--------------------------------------- Iteration      1(  19)  ---------------------------------------


    POTLOK:  cpu time    1.7197: real time    1.7291
    SETDIJ:  cpu time    0.0080: real time    0.0084
     EDDAV:  cpu time    9.2766: real time    9.2833
       DOS:  cpu time    0.0000: real time    0.0005
    CHARGE:  cpu time    0.4849: real time    0.4848
    MIXING:  cpu time    0.1180: real time    0.1175
    --------------------------------------------
      LOOP:  cpu time   11.6072: real time   11.6237

 eigenvalue-minimisations  :    96
 total energy-change (2. order) :-0.1838504E-03  (-0.7947716E-06)
 number of electron      56.0000012 magnetization 
 augmentation part       -3.5247985 magnetization 

 Broyden mixing:
  rms(total) = 0.18582E-03    rms(broyden)= 0.18580E-03
  rms(prec ) = 0.22637E-03
  weight for this iteration     100.00

 eigenvalues of (default mixing * dielectric matrix)
  average eigenvalue GAMMA=   2.4538
  8.3056  5.9826  3.2465  2.6917  1.9958  1.9958  1.7058  1.7058  1.6620  1.2374
  0.9881  0.9881  0.9238  0.9238

 Free energy of the ion-electron system (eV)
  ---------------------------------------------------
  alpha Z        PSCENC =         1.96423985
  Ewald energy   TEWEN  =      2629.98113996
  -Hartree energ DENC   =     -3564.74630377
  -exchange      EXHF   =         0.00000000
  -V(xc)+E(xc)   XCENC  =       -42.83481400
  PAW double counting   =      3918.31203394    -3756.59859236
  entropy T*S    EENTRO =        -0.00000000
  eigenvalues    EBANDS =      -526.30939309
  atomic energy  EATOM  =      1238.03527989
  Solvation  Ediel_sol  =         0.00000000
  ---------------------------------------------------
  free energy    TOTEN  =      -102.19640959 eV

  energy without entropy =     -102.19640959  energy(sigma->0) =     -102.19640959


--------------------------------------------------------------------------------------------------------




--------------------------------------- Iteration      1(  20)  ---------------------------------------


    POTLOK:  cpu time    1.7247: real time    1.7251
    SETDIJ:  cpu time    0.0080: real time    0.0078
     EDDAV:  cpu time    8.6847: real time    8.6902
       DOS:  cpu time    0.0000: real time    0.0005
    CHARGE:  cpu time    0.4809: real time    0.4802
    MIXING:  cpu time    0.1290: real time    0.1293
    --------------------------------------------
      LOOP:  cpu time   11.0273: real time   11.0332

 eigenvalue-minimisations  :    88
 total energy-change (2. order) :-0.5360621E-04  (-0.9882070E-07)
 number of electron      56.0000012 magnetization 
 augmentation part       -3.5247926 magnetization 

 Broyden mixing:
  rms(total) = 0.57616E-04    rms(broyden)= 0.57613E-04
  rms(prec ) = 0.87091E-04
  weight for this iteration     100.00

 eigenvalues of (default mixing * dielectric matrix)
  average eigenvalue GAMMA=   2.5009
  8.6342  6.2990  3.8949  2.7444  2.5681  1.8451  1.8451  1.6658  1.6658  1.2581
  1.2581  0.9776  0.9776  0.9670  0.9118

 Free energy of the ion-electron system (eV)
  ---------------------------------------------------
  alpha Z        PSCENC =         1.96423985
  Ewald energy   TEWEN  =      2629.98113996
  -Hartree energ DENC   =     -3564.74880188
  -exchange      EXHF   =         0.00000000
  -V(xc)+E(xc)   XCENC  =       -42.83570423
  PAW double counting   =      3918.10722856    -3756.39377472
  entropy T*S    EENTRO =        -0.00000000
  eigenvalues    EBANDS =      -526.30607061
  atomic energy  EATOM  =      1238.03527989
  Solvation  Ediel_sol  =         0.00000000
  ---------------------------------------------------
  free energy    TOTEN  =      -102.19646319 eV

  energy without entropy =     -102.19646319  energy(sigma->0) =     -102.19646319


--------------------------------------------------------------------------------------------------------




--------------------------------------- Iteration      1(  21)  ---------------------------------------


    POTLOK:  cpu time    1.7277: real time    1.7277
    SETDIJ:  cpu time    0.0070: real time    0.0078
     EDDAV:  cpu time    8.0788: real time    8.0837
       DOS:  cpu time    0.0000: real time    0.0003
    CHARGE:  cpu time    0.4889: real time    0.4878
    MIXING:  cpu time    0.1410: real time    0.1413
    --------------------------------------------
      LOOP:  cpu time   10.4434: real time   10.4488

 eigenvalue-minimisations  :    80
 total energy-change (2. order) :-0.3068449E-04  (-0.9151590E-07)
 number of electron      56.0000012 magnetization 
 augmentation part       -3.5247759 magnetization 

 Broyden mixing:
  rms(total) = 0.46502E-04    rms(broyden)= 0.46500E-04
  rms(prec ) = 0.61250E-04
  weight for this iteration     100.00

 eigenvalues of (default mixing * dielectric matrix)
  average eigenvalue GAMMA=   2.4875
  8.5100  6.6062  3.9776  2.8517  2.6327  2.0425  2.0425  1.7226  1.7226  1.5378
  1.1772  0.9497  0.9497  1.0239  1.0270  1.0270

 Free energy of the ion-electron system (eV)
  ---------------------------------------------------
  alpha Z        PSCENC =         1.96423985
  Ewald energy   TEWEN  =      2629.98113996
  -Hartree energ DENC   =     -3564.75780457
  -exchange      EXHF   =         0.00000000
  -V(xc)+E(xc)   XCENC  =       -42.83569318
  PAW double counting   =      3918.22658313    -3756.51326930
  entropy T*S    EENTRO =        -0.00000000
  eigenvalues    EBANDS =      -526.29696966
  atomic energy  EATOM  =      1238.03527989
  Solvation  Ediel_sol  =         0.00000000
  ---------------------------------------------------
  free energy    TOTEN  =      -102.19649388 eV

  energy without entropy =     -102.19649388  energy(sigma->0) =     -102.19649388


--------------------------------------------------------------------------------------------------------




--------------------------------------- Iteration      1(  22)  ---------------------------------------


    POTLOK:  cpu time    1.7117: real time    1.7123
    SETDIJ:  cpu time    0.0080: real time    0.0084
     EDDAV:  cpu time    8.6827: real time    8.6872
       DOS:  cpu time    0.0010: real time    0.0004
    CHARGE:  cpu time    0.4819: real time    0.4832
    MIXING:  cpu time    0.1520: real time    0.1517
    --------------------------------------------
      LOOP:  cpu time   11.0373: real time   11.0431

 eigenvalue-minimisations  :    88
 total energy-change (2. order) :-0.8433992E-05  (-0.1750973E-07)
 number of electron      56.0000012 magnetization 
 augmentation part       -3.5247800 magnetization 

 Broyden mixing:
  rms(total) = 0.21842E-04    rms(broyden)= 0.21842E-04
  rms(prec ) = 0.30812E-04
  weight for this iteration     100.00

 eigenvalues of (default mixing * dielectric matrix)
  average eigenvalue GAMMA=   2.5287
  8.7971  6.7627  4.6404  3.2197  2.5800  2.5800  1.8819  1.8819  1.6736  1.6736
  1.2280  1.2280  0.9739  0.9739  0.9932  0.9499  0.9499

 Free energy of the ion-electron system (eV)
  ---------------------------------------------------
  alpha Z        PSCENC =         1.96423985
  Ewald energy   TEWEN  =      2629.98113996
  -Hartree energ DENC   =     -3564.75755065
  -exchange      EXHF   =         0.00000000
  -V(xc)+E(xc)   XCENC  =       -42.83561467
  PAW double counting   =      3918.28542426    -3756.57205240
  entropy T*S    EENTRO =        -0.00000000
  eigenvalues    EBANDS =      -526.29736855
  atomic energy  EATOM  =      1238.03527989
  Solvation  Ediel_sol  =         0.00000000
  ---------------------------------------------------
  free energy    TOTEN  =      -102.19650231 eV

  energy without entropy =     -102.19650231  energy(sigma->0) =     -102.19650231


--------------------------------------------------------------------------------------------------------




--------------------------------------- Iteration      1(  23)  ---------------------------------------


    POTLOK:  cpu time    1.7097: real time    1.7120
    SETDIJ:  cpu time    0.0080: real time    0.0080
     EDDAV:  cpu time    8.1138: real time    8.1172
       DOS:  cpu time    0.0000: real time    0.0003
    CHARGE:  cpu time    0.4819: real time    0.4815
    MIXING:  cpu time    0.1660: real time    0.1657
    --------------------------------------------
      LOOP:  cpu time   10.4794: real time   10.4848

 eigenvalue-minimisations  :    80
 total energy-change (2. order) :-0.4752672E-05  (-0.1235454E-07)
 number of electron      56.0000012 magnetization 
 augmentation part       -3.5247862 magnetization 

 Broyden mixing:
  rms(total) = 0.14588E-04    rms(broyden)= 0.14587E-04
  rms(prec ) = 0.18663E-04
  weight for this iteration     100.00

 eigenvalues of (default mixing * dielectric matrix)
  average eigenvalue GAMMA=   2.5082
  8.8458  6.8297  4.8156  3.1587  2.6037  2.6037  1.9607  1.9607  1.7194  1.7194
  1.6300  1.1715  1.1715  1.0698  0.9853  0.9853  0.9412  0.9754

 Free energy of the ion-electron system (eV)
  ---------------------------------------------------
  alpha Z        PSCENC =         1.96423985
  Ewald energy   TEWEN  =      2629.98113996
  -Hartree energ DENC   =     -3564.75652968
  -exchange      EXHF   =         0.00000000
  -V(xc)+E(xc)   XCENC  =       -42.83574360
  PAW double counting   =      3918.24833580    -3756.53490117
  entropy T*S    EENTRO =        -0.00000000
  eigenvalues    EBANDS =      -526.29832811
  atomic energy  EATOM  =      1238.03527989
  Solvation  Ediel_sol  =         0.00000000
  ---------------------------------------------------
  free energy    TOTEN  =      -102.19650706 eV

  energy without entropy =     -102.19650706  energy(sigma->0) =     -102.19650706


--------------------------------------------------------------------------------------------------------




--------------------------------------- Iteration      1(  24)  ---------------------------------------


    POTLOK:  cpu time    1.7177: real time    1.7198
    SETDIJ:  cpu time    0.0150: real time    0.0147
     EDDAV:  cpu time    8.0348: real time    8.0391
       DOS:  cpu time    0.0010: real time    0.0003
    CHARGE:  cpu time    0.4919: real time    0.4923
    MIXING:  cpu time    0.1780: real time    0.1784
    --------------------------------------------
      LOOP:  cpu time   10.4384: real time   10.4447

 eigenvalue-minimisations  :    80
 total energy-change (2. order) :-0.2284416E-05  (-0.3402235E-08)
 number of electron      56.0000012 magnetization 
 augmentation part       -3.5247877 magnetization 

 Broyden mixing:
  rms(total) = 0.50596E-05    rms(broyden)= 0.50589E-05
  rms(prec ) = 0.80177E-05
  weight for this iteration     100.00

 eigenvalues of (default mixing * dielectric matrix)
  average eigenvalue GAMMA=   2.5698
  8.8507  7.1637  5.4349  3.9173  2.9273  2.4802  2.4802  1.8738  1.8738  1.6958
  1.6958  1.2399  1.2399  1.1001  0.9843  0.9843  0.9544  0.9544  0.9747

 Free energy of the ion-electron system (eV)
  ---------------------------------------------------
  alpha Z        PSCENC =         1.96423985
  Ewald energy   TEWEN  =      2629.98113996
  -Hartree energ DENC   =     -3564.75750293
  -exchange      EXHF   =         0.00000000
  -V(xc)+E(xc)   XCENC  =       -42.83570107
  PAW double counting   =      3918.21210009    -3756.49868907
  entropy T*S    EENTRO =        -0.00000000
  eigenvalues    EBANDS =      -526.29737606
  atomic energy  EATOM  =      1238.03527989
  Solvation  Ediel_sol  =         0.00000000
  ---------------------------------------------------
  free energy    TOTEN  =      -102.19650935 eV

  energy without entropy =     -102.19650935  energy(sigma->0) =     -102.19650935


--------------------------------------------------------------------------------------------------------




--------------------------------------- Iteration      1(  25)  ---------------------------------------


    POTLOK:  cpu time    1.7257: real time    1.7322
    SETDIJ:  cpu time    0.0080: real time    0.0076
     EDDAV:  cpu time    8.1078: real time    8.1118
       DOS:  cpu time    0.0000: real time    0.0002
    --------------------------------------------
      LOOP:  cpu time    9.8415: real time    9.8518

 eigenvalue-minimisations  :    80
 total energy-change (2. order) :-0.8789548E-06  (-0.1545905E-08)
 number of electron      56.0000012 magnetization 
 augmentation part       -3.5247877 magnetization 

 Free energy of the ion-electron system (eV)
  ---------------------------------------------------
  alpha Z        PSCENC =         1.96423985
  Ewald energy   TEWEN  =      2629.98113996
  -Hartree energ DENC   =     -3564.75784592
  -exchange      EXHF   =         0.00000000
  -V(xc)+E(xc)   XCENC  =       -42.83568178
  PAW double counting   =      3918.21376898    -3756.50036415
  entropy T*S    EENTRO =        -0.00000000
  eigenvalues    EBANDS =      -526.29704705
  atomic energy  EATOM  =      1238.03527989
  Solvation  Ediel_sol  =         0.00000000
  ---------------------------------------------------
  free energy    TOTEN  =      -102.19651023 eV

  energy without entropy =     -102.19651023  energy(sigma->0) =     -102.19651023


--------------------------------------------------------------------------------------------------------




 average (electrostatic) potential at core
  the test charge radii are     0.9892  1.1631  0.5201
  (the norm of the test charge is              1.0000)
       1 -93.3959       2 -93.4643       3 -93.4711       4 -93.4351       5 -93.4652
       6 -93.5111       7 -40.4015       8 -40.3852       9 -40.3453      10 -40.4427
      11 -40.6904      12 -40.6944      13 -41.0814      14 -40.6985      15 -40.6976
      16 -40.7030      17 -40.6982      18 -40.6976      19 -40.6878      20 -41.0616
      21 -41.0677      22 -41.0679      23 -40.6931      24 -40.7031      25 -41.0770
      26 -41.0720
 
 
 
 E-fermi :  -5.4206     XC(G=0):  -0.6077     alpha+bet : -0.3388


 k-point     1 :       0.0000    0.0000    0.0000
  band No.  band energies     occupation 
      1     -15.1855      2.00000
      2     -14.3126      2.00000
      3     -14.2202      2.00000
      4     -13.7938      2.00000
      5     -12.9338      2.00000
      6     -12.6758      2.00000
      7     -11.6631      2.00000
      8     -11.5399      2.00000
      9     -11.2866      2.00000
     10     -10.4328      2.00000
     11      -8.9683      2.00000
     12      -8.6319      2.00000
     13      -8.6217      2.00000
     14      -8.6155      2.00000
     15      -8.2027      2.00000
     16      -8.1937      2.00000
     17      -8.1779      2.00000
     18      -7.8639      2.00000
     19      -7.8624      2.00000
     20      -7.8533      2.00000
     21      -6.7852      2.00000
     22      -6.7713      2.00000
     23      -6.4760      2.00000
     24      -6.4726      2.00000
     25      -6.4608      2.00000
     26      -6.3903      2.00000
     27      -6.3833      2.00000
     28      -6.3737      2.00000
     29      -1.7234      0.00000
     30      -1.4014      0.00000
     31      -1.3588      0.00000
     32      -1.2906      0.00000
     33      -1.1727      0.00000
     34      -1.0909      0.00000
     35      -1.0091      0.00000
     36      -0.9158      0.00000
     37      -0.8630      0.00000
     38      -0.5811      0.00000
     39      -0.4516      0.00000
     40      -0.3791      0.00000
     41      -0.2830      0.00000
     42      -0.2099      0.00000


--------------------------------------------------------------------------------------------------------


 soft charge-density along one line, spin component           1
         0         1         2         3         4         5         6         7         8         9
 total charge-density along one line
 
 pseudopotential strength for first ion, spin component:           1
 19.613  27.371   0.002   0.003   0.001   0.003   0.005   0.003
 27.371  38.202   0.002   0.004   0.002   0.004   0.008   0.004
  0.002   0.002   4.359   0.000   0.000   8.131   0.000   0.001
  0.003   0.004   0.000   4.359   0.000   0.000   8.131   0.000
  0.001   0.002   0.000   0.000   4.358   0.001   0.000   8.130
  0.003   0.004   8.131   0.000   0.001  15.178   0.001   0.001
  0.005   0.008   0.000   8.131   0.000   0.001  15.177   0.001
  0.003   0.004   0.001   0.000   8.130   0.001   0.001  15.177
 total augmentation occupancy for first ion, spin component:           1
  5.559  -2.039   0.051  -0.338  -0.055  -0.014   0.101   0.017
 -2.039   0.811  -0.035   0.205   0.031   0.008  -0.045  -0.007
  0.051  -0.035   2.837  -0.113  -0.031  -0.615   0.039   0.009
 -0.338   0.205  -0.113   3.285   0.048   0.039  -0.775  -0.019
 -0.055   0.031  -0.031   0.048   2.844   0.009  -0.019  -0.615
 -0.014   0.008  -0.615   0.039   0.009   0.140  -0.011  -0.002
  0.101  -0.045   0.039  -0.775  -0.019  -0.011   0.186   0.006
  0.017  -0.007   0.009  -0.019  -0.615  -0.002   0.006   0.139


------------------------ aborting loop because EDIFF is reached ----------------------------------------


    CHARGE:  cpu time    0.4799: real time    0.4811
    FORLOC:  cpu time    0.1730: real time    0.1722
    FORNL :  cpu time    1.0758: real time    1.0763
    STRESS:  cpu time    7.7118: real time    7.7145
    FORCOR:  cpu time    1.7107: real time    1.7121
    FORHAR:  cpu time    0.5809: real time    0.5809
    MIXING:  cpu time    0.1940: real time    0.1937
    OFIELD:  cpu time    0.0000: real time    0.0000

  FORCE on cell =-STRESS in cart. coord.  units (eV):
  Direction    XX          YY          ZZ          XY          YZ          ZX
  --------------------------------------------------------------------------------------
  Alpha Z     1.96424     1.96424     1.96424
  Ewald     876.64706   876.62235   876.71007    -0.21850     0.02563    -0.50464
  Hartree  1188.35941  1187.88315  1188.51573    -0.11799     0.06127     0.00500
  E(xc)    -177.26383  -177.21627  -177.14041     0.12027     0.05969     0.04849
  Local   -2568.48425 -2567.95764 -2568.57528     0.41477    -0.05863     0.54856
  n-local   273.09179   272.87829   272.37781    -0.65355    -0.31358    -0.31136
  augment   -27.51435   -27.51283   -27.51637     0.00080     0.00227     0.00062
  Kinetic   429.29304   429.35426   429.56212     0.31343     0.16316     0.16533
  Fock        0.00000     0.00000     0.00000     0.00000     0.00000     0.00000
  -------------------------------------------------------------------------------------
  Total      -3.90690    -3.98444    -4.10210    -0.14077    -0.06020    -0.04800
  in kB      -0.78244    -0.79797    -0.82154    -0.02819    -0.01206    -0.00961
  external pressure =       -0.80 kB  Pullay stress =        0.00 kB


 VOLUME and BASIS-vectors are now :
 -----------------------------------------------------------------------------
  energy-cutoff  :      400.00
[...]
    SETDIJ:  cpu time    0.0080: real time    0.0081
     EDDAV:  cpu time   11.0303: real time   11.0482
       DOS:  cpu time    0.0000: real time    0.0004
    CHARGE:  cpu time    0.4899: real time    0.4923
    MIXING:  cpu time    0.0450: real time    0.0445
    --------------------------------------------
      LOOP:  cpu time   13.2970: real time   13.3215

 eigenvalue-minimisations  :   120
 total energy-change (2. order) :-0.1115046E-04  (-0.1703321E-04)
 number of electron      55.9999992 magnetization 
 augmentation part       -3.5191550 magnetization 

 Broyden mixing:
  rms(total) = 0.12154E-02    rms(broyden)= 0.12150E-02
  rms(prec ) = 0.13078E-02
  weight for this iteration     100.00

 eigenvalues of (default mixing * dielectric matrix)
  average eigenvalue GAMMA=   1.0391
  1.0391

 Free energy of the ion-electron system (eV)
  ---------------------------------------------------
  alpha Z        PSCENC =         1.96423985
  Ewald energy   TEWEN  =      2639.96090576
  -Hartree energ DENC   =     -3573.95398153
  -exchange      EXHF   =         0.00000000
  -V(xc)+E(xc)   XCENC  =       -42.14047049
  PAW double counting   =      4162.92666638    -4001.31146629
  entropy T*S    EENTRO =        -0.00000000
  eigenvalues    EBANDS =      -527.94177814
  atomic energy  EATOM  =      1238.03527989
  Solvation  Ediel_sol  =         0.00000000
  ---------------------------------------------------
  free energy    TOTEN  =      -102.46060457 eV

  energy without entropy =     -102.46060457  energy(sigma->0) =     -102.46060457


--------------------------------------------------------------------------------------------------------




--------------------------------------- Iteration     18(   3)  ---------------------------------------


    POTLOK:  cpu time    1.7257: real time    1.7273
    SETDIJ:  cpu time    0.0090: real time    0.0086
     EDDAV:  cpu time   11.0453: real time   11.0631
       DOS:  cpu time    0.0000: real time    0.0003
    CHARGE:  cpu time    0.4809: real time    0.4823
    MIXING:  cpu time    0.0470: real time    0.0474
    --------------------------------------------
      LOOP:  cpu time   13.3080: real time   13.3291

 eigenvalue-minimisations  :   120
 total energy-change (2. order) : 0.1864091E-05  (-0.5961067E-06)
 number of electron      55.9999992 magnetization 
 augmentation part       -3.5191701 magnetization 

 Broyden mixing:
  rms(total) = 0.68550E-03    rms(broyden)= 0.68548E-03
  rms(prec ) = 0.74213E-03
  weight for this iteration     100.00

 eigenvalues of (default mixing * dielectric matrix)
  average eigenvalue GAMMA=   1.5573
  1.0578  2.0569

 Free energy of the ion-electron system (eV)
  ---------------------------------------------------
  alpha Z        PSCENC =         1.96423985
  Ewald energy   TEWEN  =      2639.96090576
  -Hartree energ DENC   =     -3573.95004424
  -exchange      EXHF   =         0.00000000
  -V(xc)+E(xc)   XCENC  =       -42.14048168
  PAW double counting   =      4162.74124151    -4001.12581652
  entropy T*S    EENTRO =        -0.00000000
  eigenvalues    EBANDS =      -527.94592727
  atomic energy  EATOM  =      1238.03527989
  Solvation  Ediel_sol  =         0.00000000
  ---------------------------------------------------
  free energy    TOTEN  =      -102.46060271 eV

  energy without entropy =     -102.46060271  energy(sigma->0) =     -102.46060271


--------------------------------------------------------------------------------------------------------




--------------------------------------- Iteration     18(   4)  ---------------------------------------


    POTLOK:  cpu time    1.7287: real time    1.7286
    SETDIJ:  cpu time    0.0070: real time    0.0075
     EDDAV:  cpu time    9.2926: real time    9.2932
       DOS:  cpu time    0.0000: real time    0.0003
    --------------------------------------------
      LOOP:  cpu time   11.0283: real time   11.0294

 eigenvalue-minimisations  :    96
 total energy-change (2. order) : 0.9593305E-06  (-0.1709205E-06)
 number of electron      55.9999992 magnetization 
 augmentation part       -3.5191701 magnetization 

 Free energy of the ion-electron system (eV)
  ---------------------------------------------------
  alpha Z        PSCENC =         1.96423985
  Ewald energy   TEWEN  =      2639.96090576
  -Hartree energ DENC   =     -3573.94694770
  -exchange      EXHF   =         0.00000000
  -V(xc)+E(xc)   XCENC  =       -42.14047349
  PAW double counting   =      4162.44176854    -4000.82616121
  entropy T*S    EENTRO =        -0.00000000
  eigenvalues    EBANDS =      -527.94921339
  atomic energy  EATOM  =      1238.03527989
  Solvation  Ediel_sol  =         0.00000000
  ---------------------------------------------------
  free energy    TOTEN  =      -102.46060175 eV

  energy without entropy =     -102.46060175  energy(sigma->0) =     -102.46060175


--------------------------------------------------------------------------------------------------------




 average (electrostatic) potential at core
  the test charge radii are     0.9892  1.1631  0.5201
  (the norm of the test charge is              1.0000)
       1 -93.3233       2 -93.3411       3 -93.3372       4 -93.4034       5 -93.3407
       6 -93.4082       7 -40.3833       8 -40.3893       9 -40.3341      10 -40.4291
      11 -40.8468      12 -40.8470      13 -40.9968      14 -40.8398      15 -40.8403
      16 -40.8405      17 -40.8407      18 -40.8863      19 -40.8980      20 -40.9752
      21 -40.9724      22 -41.0046      23 -40.8404      24 -40.8377      25 -40.9737
      26 -40.9758
 
 
 
 E-fermi :  -5.3757     XC(G=0):  -0.6057     alpha+bet : -0.3388


 k-point     1 :       0.0000    0.0000    0.0000
  band No.  band energies     occupation 
      1     -15.1319      2.00000
      2     -14.2176      2.00000
      3     -14.1723      2.00000
      4     -13.9124      2.00000
      5     -12.9943      2.00000
      6     -12.8070      2.00000
      7     -11.7491      2.00000
      8     -11.6295      2.00000
      9     -11.3947      2.00000
     10     -10.5674      2.00000
     11      -9.0113      2.00000
     12      -8.6929      2.00000
     13      -8.6598      2.00000
     14      -8.5879      2.00000
     15      -8.2990      2.00000
     16      -8.2115      2.00000
     17      -8.0811      2.00000
     18      -7.9912      2.00000
     19      -7.8782      2.00000
     20      -7.7988      2.00000
     21      -6.8588      2.00000
     22      -6.7974      2.00000
     23      -6.4854      2.00000
     24      -6.4801      2.00000
     25      -6.4497      2.00000
     26      -6.3972      2.00000
     27      -6.3794      2.00000
     28      -6.3388      2.00000
     29      -1.6696      0.00000
     30      -1.4040      0.00000
     31      -1.3649      0.00000
     32      -1.3476      0.00000
     33      -1.2046      0.00000
     34      -1.1149      0.00000
     35      -0.9684      0.00000
     36      -0.8694      0.00000
     37      -0.7562      0.00000
     38      -0.4708      0.00000
     39      -0.4121      0.00000
     40      -0.2826      0.00000
     41      -0.1875      0.00000
     42      -0.1703      0.00000


--------------------------------------------------------------------------------------------------------


 soft charge-density along one line, spin component           1
         0         1         2         3         4         5         6         7         8         9
 total charge-density along one line
 
 pseudopotential strength for first ion, spin component:           1
 19.613  27.371   0.001   0.003   0.001   0.003   0.006   0.002
 27.371  38.201   0.002   0.004   0.002   0.004   0.008   0.003
  0.001   0.002   4.361   0.000   0.000   8.135   0.000   0.000
  0.003   0.004   0.000   4.362   0.000   0.000   8.136   0.000
  0.001   0.002   0.000   0.000   4.361   0.000   0.000   8.135
  0.003   0.004   8.135   0.000   0.000  15.186   0.000   0.001
  0.006   0.008   0.000   8.136   0.000   0.000  15.186   0.001
  0.002   0.003   0.000   0.000   8.135   0.001   0.001  15.185
 total augmentation occupancy for first ion, spin component:           1
  5.927  -2.238  -0.004  -0.464  -0.103   0.004   0.145   0.033
 -2.238   0.906  -0.012   0.264   0.053   0.000  -0.065  -0.014
 -0.004  -0.012   2.935  -0.193  -0.090  -0.646   0.063   0.025
 -0.464   0.264  -0.193   3.516   0.028   0.063  -0.845  -0.013
 -0.103   0.053  -0.090   0.028   2.997   0.025  -0.014  -0.661
  0.004   0.000  -0.646   0.063   0.025   0.149  -0.018  -0.006
  0.145  -0.065   0.063  -0.845  -0.014  -0.018   0.206   0.005
  0.033  -0.014   0.025  -0.013  -0.661  -0.006   0.005   0.152


------------------------ aborting loop because EDIFF is reached ----------------------------------------


    CHARGE:  cpu time    0.4869: real time    0.4870
    FORLOC:  cpu time    0.1740: real time    0.1734
    FORNL :  cpu time    1.0768: real time    1.0777
    STRESS:  cpu time    7.5639: real time    7.5649
    FORCOR:  cpu time    1.7127: real time    1.7117
    FORHAR:  cpu time    0.5809: real time    0.5809
    MIXING:  cpu time    0.0490: real time    0.0493
    OFIELD:  cpu time    0.0010: real time    0.0001

  FORCE on cell =-STRESS in cart. coord.  units (eV):
  Direction    XX          YY          ZZ          XY          YZ          ZX
  --------------------------------------------------------------------------------------
  Alpha Z     1.96424     1.96424     1.96424
  Ewald     880.23048   877.14353   882.58520     1.71345     0.62700     3.13146
  Hartree  1190.72909  1188.40941  1194.81065     3.18688     1.45391     3.66398
  E(xc)    -178.08002  -178.03477  -177.99095     0.11503     0.06202     0.05646
  Local   -2575.33920 -2569.96398 -2581.42576    -4.74601    -2.07555    -6.84821
  n-local   274.07897   274.03434   273.31882    -0.68805    -0.29502    -0.35920
  augment   -27.65746   -27.68355   -27.63907    -0.00393    -0.01127    -0.01026
  Kinetic   433.15612   433.18466   433.47132     0.34394     0.20176     0.40435
  Fock        0.00000     0.00000     0.00000     0.00000     0.00000     0.00000
  -------------------------------------------------------------------------------------
  Total      -0.91777    -0.94612    -0.90556    -0.07868    -0.03714     0.03858
  in kB      -0.18380    -0.18948    -0.18136    -0.01576    -0.00744     0.00773
  external pressure =       -0.18 kB  Pullay stress =        0.00 kB


 VOLUME and BASIS-vectors are now :
 -----------------------------------------------------------------------------
  energy-cutoff  :      400.00
  volume of cell :     8000.00
      direct lattice vectors                 reciprocal lattice vectors
    20.000000000  0.000000000  0.000000000     0.050000000  0.000000000  0.000000000
     0.000000000 20.000000000  0.000000000     0.000000000  0.050000000  0.000000000
     0.000000000  0.000000000 20.000000000     0.000000000  0.000000000  0.050000000

  length of vectors
    20.000000000 20.000000000 20.000000000     0.050000000  0.050000000  0.050000000


 FORCES acting on ions
    electron-ion (+dipol)            ewald-force                    non-local-force                 convergence-correction
 -----------------------------------------------------------------------------------------------
   0.115E+02 -.208E+02 0.883E+02   -.120E+02 0.203E+02 -.898E+02   0.525E+00 0.520E+00 0.148E+01   0.971E-03 -.274E-03 -.824E-03
   0.879E+02 -.461E+01 0.441E+02   -.895E+02 0.495E+01 -.456E+02   0.158E+01 -.331E+00 0.157E+01   0.719E-03 0.691E-03 -.112E-02
   -.372E+02 0.551E+02 0.736E+02   0.377E+02 -.557E+02 -.757E+02   -.518E+00 0.657E+00 0.206E+01   0.105E-02 -.438E-04 -.838E-03
   -.410E+02 -.716E+02 -.403E+02   0.424E+02 0.722E+02 0.412E+02   -.137E+01 -.653E+00 -.894E+00   0.319E-03 -.506E-03 -.120E-02
   -.867E+02 0.721E+01 -.459E+02   0.886E+02 -.659E+01 0.470E+02   -.187E+01 -.619E+00 -.114E+01   0.331E-03 -.114E-02 -.885E-03
   0.285E+02 0.820E+02 -.451E+02   -.292E+02 -.841E+02 0.462E+02   0.725E+00 0.205E+01 -.115E+01   0.102E-02 -.113E-02 0.267E-03
   -.293E+02 -.849E+02 0.463E+02   0.295E+02 0.855E+02 -.466E+02   -.214E+00 -.649E+00 0.324E+00   -.188E-03 -.831E-03 -.129E-02
   0.832E+02 0.121E+02 -.414E+02   -.837E+02 -.125E+02 0.414E+02   0.522E+00 0.405E+00 0.850E-03   0.315E-03 -.570E-03 -.336E-03
   -.521E+02 0.770E+02 -.939E+01   0.523E+02 -.774E+02 0.943E+01   -.227E+00 0.405E+00 -.326E-01   0.564E-03 -.867E-03 -.989E-03
   0.381E+02 -.531E+02 -.759E+02   -.382E+02 0.538E+02 0.766E+02   0.782E-01 -.674E+00 -.667E+00   0.135E-03 -.434E-03 -.662E-03
   0.207E+02 0.414E+02 0.630E+01   -.220E+02 -.437E+02 -.756E+01   0.135E+01 0.232E+01 0.127E+01   0.215E-03 -.139E-03 0.507E-04
   0.999E+00 0.222E+02 -.411E+02   -.628E+00 -.228E+02 0.440E+02   -.371E+00 0.623E+00 -.288E+01   0.158E-03 -.254E-03 0.379E-05
   -.265E+02 0.385E+02 -.427E+01   0.279E+02 -.405E+02 0.449E+01   -.140E+01 0.202E+01 -.215E+00   -.348E-04 -.962E-04 -.129E-03
   -.463E+02 -.351E+01 0.603E+01   0.489E+02 0.389E+01 -.728E+01   -.265E+01 -.383E+00 0.125E+01   0.648E-04 -.212E-03 -.248E-03
   -.208E+02 0.823E+01 -.413E+02   0.213E+02 -.886E+01 0.442E+02   -.441E+00 0.632E+00 -.286E+01   0.105E-03 -.267E-03 -.672E-04
   -.370E+02 0.509E+01 0.287E+02   0.396E+02 -.468E+01 -.300E+02   -.263E+01 -.411E+00 0.130E+01   -.405E-04 -.876E-04 -.648E-04
   0.846E+01 0.363E+02 0.288E+02   -.976E+01 -.386E+02 -.302E+02   0.130E+01 0.230E+01 0.132E+01   0.345E-03 0.111E-03 -.997E-04
   0.622E+01 -.105E+02 0.473E+02   -.658E+01 0.111E+02 -.501E+02   0.358E+00 -.632E+00 0.282E+01   0.193E-03 -.751E-04 0.645E-04
   -.228E+02 -.375E+02 -.211E+02   0.241E+02 0.398E+02 0.223E+02   -.136E+01 -.226E+01 -.125E+01   0.604E-04 -.108E-04 -.133E-03
   0.309E+01 -.332E+01 -.445E+02   -.284E+01 0.284E+01 0.470E+02   -.256E+00 0.476E+00 -.245E+01   0.508E-04 -.196E-03 0.302E-04
   0.244E+02 -.362E+02 -.106E+02   -.258E+02 0.383E+02 0.104E+02   0.140E+01 -.208E+01 0.211E+00   -.682E-04 -.807E-05 -.225E-03
   0.416E+02 0.624E+01 -.201E+02   -.438E+02 -.655E+01 0.211E+02   0.221E+01 0.312E+00 -.106E+01   -.572E-04 -.141E-03 0.806E-04
   0.323E+02 0.247E+02 0.237E+02   -.338E+02 -.269E+02 -.250E+02   0.144E+01 0.221E+01 0.133E+01   0.774E-04 0.465E-05 -.223E-03
   0.349E+02 -.292E+02 0.118E+02   -.365E+02 0.316E+02 -.121E+02   0.165E+01 -.244E+01 0.289E+00   0.471E-04 0.170E-03 -.241E-03
   0.125E+02 -.418E+02 0.115E+02   -.139E+02 0.439E+02 -.117E+02   0.136E+01 -.210E+01 0.259E+00   0.769E-05 -.144E-03 -.272E-03
   -.336E+02 -.202E+02 0.227E+02   0.358E+02 0.206E+02 -.239E+02   -.220E+01 -.420E+00 0.113E+01   -.623E-04 -.192E-03 -.200E-03
 -----------------------------------------------------------------------------------------------
   0.101E+01 -.128E+01 -.201E+01   -.711E-14 0.107E-13 -.178E-13   -.102E+01 0.128E+01 0.202E+01   0.630E-02 -.665E-02 -.955E-02
 
 
 POSITION                                       TOTAL-FORCE (eV/Angst)
 -----------------------------------------------------------------------------------
      9.49389     11.09645      7.68880        -0.004711      0.000946     -0.002306
      7.39489     10.76933      8.69759        -0.001302      0.002926      0.000602
     10.81127      9.16387      7.91040        -0.001785      0.001091     -0.001832
     10.97282     12.47432     11.09125        -0.001239      0.001325      0.002849
     12.25906     10.52121     11.30912        -0.000554     -0.001101      0.002574
      9.00967      8.28993     11.28499        -0.001263      0.001149      0.000880
     10.62292     12.93378      8.75766        -0.004120     -0.003258      0.005915
      7.67497     10.26823     11.03242         0.005737      0.001326     -0.003643
     11.13796      8.67861     10.24215         0.001129      0.002963      0.005856
      8.82849     12.14294     12.12370         0.002345     -0.002139     -0.005374
      8.33047      7.11943     10.64210         0.004538      0.003083      0.000799
      9.19712      7.97694     12.73735         0.000027     -0.002510      0.004046
     12.02408      7.39990     10.37904         0.007565     -0.003128      0.000698
     13.60239     10.71592     10.67375        -0.003019     -0.000591     -0.001675
     12.47949     10.20118     12.75640        -0.002666     -0.001214      0.000747
     12.14119      9.37400      7.25341         0.004255      0.002104     -0.001002
     10.14893      7.99750      7.24176        -0.002068      0.001929      0.005135
      9.30820     11.42285      6.23460        -0.003532      0.002453     -0.008636
     11.67379     13.63736     11.73297         0.000326     -0.003632     -0.001699
      8.98913     11.84664     13.64493         0.000753     -0.001423     -0.006554
      7.96384     13.43204     11.99212         0.003234     -0.000388      0.000912
      6.27827     10.06973     11.70243        -0.002497      0.000835     -0.004561
      6.66580      9.64521      8.02475         0.009407      0.003293      0.003469
      6.56204     12.00610      8.55218        -0.002803      0.005221     -0.001020
      9.77923     14.23348      8.59799        -0.004892     -0.001054      0.002040
     11.98946     13.19103      8.05446        -0.002865     -0.010204      0.001781
 -----------------------------------------------------------------------------------
    total drift:                               -0.002103     -0.000154     -0.000179


--------------------------------------------------------------------------------------------------------



  FREE ENERGIE OF THE ION-ELECTRON SYSTEM (eV)
  ---------------------------------------------------
  free  energy   TOTEN  =      -102.46060175 eV

  energy  without entropy=     -102.46060175  energy(sigma->0) =     -102.46060175
 
 d Force = 0.1010024E-03[ 0.288E-04, 0.173E-03]  d Energy = 0.9828110E-04 0.272E-05
 d Force = 0.2152819E+00[ 0.215E+00, 0.215E+00]  d Ewald  = 0.2152819E+00-0.295E-07


--------------------------------------------------------------------------------------------------------


    POTLOK:  cpu time    1.7307: real time    1.7318


--------------------------------------------------------------------------------------------------------


 Conjugate gradient step on ions:
 trial-energy change:   -0.000098  1 .order   -0.000101   -0.000173   -0.000029
  (g-gl).g = 0.165E-03      g.g   = 0.164E-03  gl.gl    = 0.416E-03
 g(Force)  = 0.164E-03   g(Stress)= 0.000E+00 ortho     = 0.210E-05
 gamma     =   0.39653
 trial     =   1.04820
 opt step  =   1.25736  (harmonic =   1.25736) maximal distance =0.00147176
 next E    =  -102.460607   (d E  =  -0.00010)


--------------------------------------------------------------------------------------------------------


  
 reached required accuracy - stopping structural energy minimisation
 writing wavefunctions
     LOOP+:  cpu time   62.3635: real time   62.9041
    4ORBIT:  cpu time    0.0000: real time    0.0000

 total amount of memory used by VASP MPI-rank0   131440. kBytes
=======================================================================

   base      :      30000. kBytes
   nonl-proj :      17624. kBytes
   fftplans  :      26957. kBytes
   grid      :      48673. kBytes
   one-center:         40. kBytes
   wavefun   :       8146. kBytes
 
  
  
 General timing and accounting informations for this job:
 ========================================================
  
                  Total CPU time used (sec):     2265.940
                            User time (sec):     2237.212
                          System time (sec):       28.729
                         Elapsed time (sec):     2271.411
  
                   Maximum memory used (kb):      185228.
                   Average memory used (kb):           0.
  
                          Minor page faults:      5200228
                          Major page faults:            7
                 Voluntary context switches:         5487
