 vasp.5.4.4.18Apr17-6-g9f103f2a35 (build Nov 06 2017 19:16:10) complex          
  
 executed on           IFC91_ompi date 2018.07.14  23:27:35
 running on   12 total cores
 distrk:  each k-point on   12 cores,    1 groups
 distr:  one band on NCORES_PER_BAND=   6 cores,    2 groups


--------------------------------------------------------------------------------------------------------


 INCAR:
 POTCAR:    PAW_PBE Si 05Jan2001                  
 POTCAR:    PAW_PBE Ge 05Jan2001                  
 POTCAR:    PAW_PBE H 15Jun2001                   
 POTCAR:    PAW_PBE Si 05Jan2001                  
   VRHFIN =Si: s2p2                                                             
   LEXCH  = PE                                                                  
   EATOM  =   103.0669 eV,    7.5752 Ry                                         
                                                                                
   TITEL  = PAW_PBE Si 05Jan2001                                                
   LULTRA =        F    use ultrasoft PP ?                                      
   IUNSCR =        1    unscreen: 0-lin 1-nonlin 2-no                           
   RPACOR =    1.500    partial core radius                                     
   POMASS =   28.085; ZVAL   =    4.000    mass and valenz                      
   RCORE  =    1.900    outmost cutoff radius                                   
   RWIGS  =    2.480; RWIGS  =    1.312    wigner-seitz radius (au A)           
   ENMAX  =  245.345; ENMIN  =  184.009 eV                                      
   ICORE  =        2    local potential                                         
   LCOR   =        T    correct aug charges                                     
   LPAW   =        T    paw PP                                                  
   EAUG   =  322.069                                                            
   DEXC   =    0.000                                                            
   RMAX   =    1.950    core radius for proj-oper                               
   RAUG   =    1.300    factor for augmentation sphere                          
   RDEP   =    1.993    radius for radial grids                                 
   RDEPT  =    1.837    core radius for aug-charge                              
                                                                                
   Atomic configuration                                                         
    6 entries                                                                   
     n  l   j            E        occ.                                          
     1  0  0.50     -1785.8828   2.0000                                         
     2  0  0.50      -139.4969   2.0000                                         
     2  1  1.50       -95.5546   6.0000                                         
     3  0  0.50       -10.8127   2.0000                                         
     3  1  0.50        -4.0811   2.0000                                         
     3  2  1.50        -4.0817   0.0000                                         
   Description                                                                  
     l       E           TYP  RCUT    TYP  RCUT                                 
     0    -10.8127223     23  1.900                                             
     0     -7.6451159     23  1.900                                             
     1     -4.0811372     23  1.900                                             
     1      2.4879257     23  1.900                                             
     2     -4.0817478      7  1.900                                             
  local pseudopotential read in
  partial core-charges read in
  partial kinetic energy density read in
  atomic valenz-charges read in
  non local Contribution for L=           0  read in
    real space projection operators read in
  non local Contribution for L=           0  read in
    real space projection operators read in
  non local Contribution for L=           1  read in
    real space projection operators read in
  non local Contribution for L=           1  read in
    real space projection operators read in
    PAW grid and wavefunctions read in
 
   number of l-projection  operators is LMAX  =           4
   number of lm-projection operators is LMMAX =           8
 
 POTCAR:    PAW_PBE Ge 05Jan2001                  
   VRHFIN =Ge: s2p2                                                             
   LEXCH  = PE                                                                  
   EATOM  =   104.9960 eV,    7.7170 Ry                                         
                                                                                
   TITEL  = PAW_PBE Ge 05Jan2001                                                
   LULTRA =        F    use ultrasoft PP ?                                      
   IUNSCR =        1    unscreen: 0-lin 1-nonlin 2-no                           
   RPACOR =    2.170    partial core radius                                     
   POMASS =   72.610; ZVAL   =    4.000    mass and valenz                      
   RCORE  =    2.300    outmost cutoff radius                                   
   RWIGS  =    2.300; RWIGS  =    1.217    wigner-seitz radius (au A)           
   ENMAX  =  173.807; ENMIN  =  130.355 eV                                      
   ICORE  =        3    local potential                                         
   LCOR   =        T    correct aug charges                                     
   LPAW   =        T    paw PP                                                  
   EAUG   =  385.843                                                            
   DEXC   =    0.000                                                            
   RMAX   =    2.342    core radius for proj-oper                               
   RAUG   =    1.300    factor for augmentation sphere                          
   RDEP   =    2.318    radius for radial grids                                 
   RDEPT  =    2.103    core radius for aug-charge                              
                                                                                
   Atomic configuration                                                         
   10 entries                                                                   
     n  l   j            E        occ.                                          
     1  0  0.50    -10959.8463   2.0000                                         
     2  0  0.50     -1371.6056   2.0000                                         
     2  1  1.50     -1198.4791   6.0000                                         
     3  0  0.50      -168.4733   2.0000                                         
     3  1  1.50      -115.6019   6.0000                                         
     3  2  2.50       -29.3106  10.0000                                         
     4  0  0.50       -11.7309   2.0000                                         
     4  1  0.50        -3.8952   2.0000                                         
     4  2  1.50        -4.0817   0.0000                                         
     4  3  2.50        -4.0817   0.0000                                         
   Description                                                                  
     l       E           TYP  RCUT    TYP  RCUT                                 
     0    -11.7309493     23  2.300                                             
     0     -7.4578696     23  2.300                                             
     1     -3.8952261     23  2.300                                             
     1      6.1178114     23  2.300                                             
     2     -4.0817478     23  2.300                                             
     3     -1.3605826      7  2.300                                             
  local pseudopotential read in
  partial core-charges read in
  partial kinetic energy density read in
  atomic valenz-charges read in
  non local Contribution for L=           0  read in
    real space projection operators read in
  non local Contribution for L=           0  read in
    real space projection operators read in
  non local Contribution for L=           1  read in
    real space projection operators read in
  non local Contribution for L=           1  read in
    real space projection operators read in
  non local Contribution for L=           2  read in
    real space projection operators read in
    PAW grid and wavefunctions read in
 
   number of l-projection  operators is LMAX  =           5
   number of lm-projection operators is LMMAX =          13
 
 POTCAR:    PAW_PBE H 15Jun2001                   
   VRHFIN =H: ultrasoft test                                                    
   LEXCH  = PE                                                                  
   EATOM  =    12.4884 eV,    0.9179 Ry                                         
                                                                                
   TITEL  = PAW_PBE H 15Jun2001                                                 
   LULTRA =        F    use ultrasoft PP ?                                      
   IUNSCR =        0    unscreen: 0-lin 1-nonlin 2-no                           
   RPACOR =    0.000    partial core radius                                     
   POMASS =    1.000; ZVAL   =    1.000    mass and valenz                      
   RCORE  =    1.100    outmost cutoff radius                                   
   RWIGS  =    0.700; RWIGS  =    0.370    wigner-seitz radius (au A)           
   ENMAX  =  250.000; ENMIN  =  200.000 eV                                      
   RCLOC  =    0.701    cutoff for local pot                                    
   LCOR   =        T    correct aug charges                                     
   LPAW   =        T    paw PP                                                  
   EAUG   =  400.000                                                            
   RMAX   =    1.123    core radius for proj-oper                               
   RAUG   =    1.200    factor for augmentation sphere                          
   RDEP   =    1.112    radius for radial grids                                 
   RDEPT  =    0.926    core radius for aug-charge                              
                                                                                
   Atomic configuration                                                         
    2 entries                                                                   
     n  l   j            E        occ.                                          
     1  0  0.50        -6.4927   1.0000                                         
     2  1  0.50        -3.4015   0.0000                                         
   Description                                                                  
     l       E           TYP  RCUT    TYP  RCUT                                 
     0     -6.4927494     23  1.100                                             
     0      6.8029130     23  1.100                                             
     1     -4.0817478     23  1.100                                             
  local pseudopotential read in
  atomic valenz-charges read in
  non local Contribution for L=           0  read in
    real space projection operators read in
  non local Contribution for L=           0  read in
    real space projection operators read in
  non local Contribution for L=           1  read in
    real space projection operators read in
    PAW grid and wavefunctions read in
 
   number of l-projection  operators is LMAX  =           3
   number of lm-projection operators is LMMAX =           5
 

 ----------------------------------------------------------------------------- 
|                                                                             |
|  ADVICE TO THIS USER RUNNING 'VASP/VAMP'   (HEAR YOUR MASTER'S VOICE ...):  |
|                                                                             |
|      You have a (more or less) 'large supercell' and for larger cells       |
|      it might be more efficient to use real space projection opertators     |
|      So try LREAL= Auto  in the INCAR   file.                               |
|      Mind:          For very  accurate calculation you might also keep the  |
|      reciprocal projection scheme          (i.e. LREAL=.FALSE.)             |
|                                                                             |
 ----------------------------------------------------------------------------- 

  PAW_PBE Si 05Jan2001                  :
 energy of atom  1       EATOM= -103.0669
 kinetic energy error for atom=    0.0012 (will be added to EATOM!!)
  PAW_PBE Ge 05Jan2001                  :
 energy of atom  2       EATOM= -104.9960
 kinetic energy error for atom=    0.0003 (will be added to EATOM!!)
  PAW_PBE H 15Jun2001                   :
 energy of atom  3       EATOM=  -12.4884
 kinetic energy error for atom=    0.0098 (will be added to EATOM!!)
 
 
 POSCAR: SiGeH16                                 
  positions in direct lattice
  No initial velocities read in
 exchange correlation table for  LEXCH =        8
   RHO(1)=    0.500       N(1)  =     2000
   RHO(2)=  100.500       N(2)  =     4000
 


--------------------------------------------------------------------------------------------------------


 ion  position               nearest neighbor table
   1  0.369  0.539  0.436-  23 1.55  24 1.55   8 2.39   7 2.39
   2  0.542  0.457  0.396-  17 1.55  16 1.55   9 2.39   7 2.39
   3  0.531  0.648  0.437-  25 1.55  26 1.55  10 2.39   7 2.39
   4  0.613  0.525  0.565-  15 1.55  14 1.55  10 2.39   9 2.39
   5  0.451  0.416  0.564-  12 1.55  11 1.55   8 2.39   9 2.39
   6  0.440  0.606  0.605-  20 1.55  21 1.55   8 2.39  10 2.39
   7  0.475  0.556  0.385-  18 1.55   3 2.39   1 2.39   2 2.39
   8  0.385  0.515  0.552-  22 1.55   6 2.39   5 2.39   1 2.39
   9  0.557  0.433  0.512-  13 1.55   2 2.39   4 2.39   5 2.39
  10  0.547  0.624  0.554-  19 1.55   3 2.39   4 2.39   6 2.39
  11  0.415  0.357  0.529-   5 1.55
  12  0.461  0.400  0.639-   5 1.55
  13  0.600  0.369  0.520-   9 1.55
  14  0.682  0.536  0.531-   4 1.55
  15  0.623  0.509  0.640-   4 1.55
  16  0.611  0.469  0.363-   2 1.55
  17  0.506  0.398  0.362-   2 1.55
  18  0.465  0.572  0.309-   7 1.55
  19  0.583  0.683  0.588-  10 1.55
  20  0.451  0.590  0.680-   6 1.55
  21  0.397  0.670  0.598-   6 1.55
  22  0.316  0.504  0.586-   8 1.55
  23  0.333  0.479  0.402-   1 1.55
  24  0.326  0.603  0.429-   1 1.55
  25  0.488  0.712  0.430-   3 1.55
  26  0.600  0.659  0.404-   3 1.55
 
  LATTYP: Found a simple cubic cell.
 ALAT       =    20.0000000000
  
  Lattice vectors:
  
 A1 = (  20.0000000000,   0.0000000000,   0.0000000000)
 A2 = (   0.0000000000,  20.0000000000,   0.0000000000)
 A3 = (   0.0000000000,   0.0000000000,  20.0000000000)


Analysis of symmetry for initial positions (statically):
=====================================================================
 Subroutine PRICEL returns:
 Original cell was already a primitive cell.
 

 Routine SETGRP: Setting up the symmetry group for a 
 simple cubic supercell.


 Subroutine GETGRP returns: Found  1 space group operations
 (whereof  1 operations were pure point group operations)
 out of a pool of 48 trial point group operations.


The static configuration has the point symmetry C_1 .


Analysis of symmetry for dynamics (positions and initial velocities):
=====================================================================
 Subroutine PRICEL returns:
 Original cell was already a primitive cell.
 

 Routine SETGRP: Setting up the symmetry group for a 
 simple cubic supercell.


 Subroutine GETGRP returns: Found  1 space group operations
 (whereof  1 operations were pure point group operations)
 out of a pool of 48 trial point group operations.


The dynamic configuration has the point symmetry C_1 .


 Subroutine INISYM returns: Found  1 space group operations
 (whereof  1 operations are pure point group operations),
 and found     1 'primitive' translations

 
 
 KPOINTS: Automatic mesh                          

Automatic generation of k-mesh.
Space group operators:
 irot       det(A)        alpha          n_x          n_y          n_z        tau_x        tau_y        tau_z
    1     1.000000     0.000000     1.000000     0.000000     0.000000     0.000000     0.000000     0.000000
 
 Subroutine IBZKPT returns following result:
 ===========================================
 
 Found      1 irreducible k-points:
 
 Following reciprocal coordinates:
            Coordinates               Weight
  0.000000  0.000000  0.000000      1.000000
 
 Following cartesian coordinates:
            Coordinates               Weight
  0.000000  0.000000  0.000000      1.000000
 


--------------------------------------------------------------------------------------------------------




 Dimension of arrays:
   k-points           NKPTS =      1   k-points in BZ     NKDIM =      1   number of bands    NBANDS=     42
   number of dos      NEDOS =    301   number of ions     NIONS =     26
   non local maximal  LDIM  =      5   non local SUM 2l+1 LMDIM =     13
   total plane-waves  NPLWV = 941192
   max r-space proj   IRMAX =      1   max aug-charges    IRDMAX=   6593
   dimension x,y,z NGX =    98 NGY =   98 NGZ =   98
   dimension x,y,z NGXF=   196 NGYF=  196 NGZF=  196
   support grid    NGXF=   196 NGYF=  196 NGZF=  196
   ions per type =               6   4  16
   NGX,Y,Z   is equivalent  to a cutoff of   8.15,  8.15,  8.15 a.u.
   NGXF,Y,Z  is equivalent  to a cutoff of  16.29, 16.29, 16.29 a.u.

 SYSTEM =  SiGe                                    
 POSCAR =  SiGeH16                                 

 Startparameter for this run:
   NWRITE =      2    write-flag & timer
   PREC   = normal    normal or accurate (medium, high low for compatibility)
   ISTART =      0    job   : 0-new  1-cont  2-samecut
   ICHARG =      2    charge: 1-file 2-atom 10-const
   ISPIN  =      1    spin polarized calculation?
   LNONCOLLINEAR =      F non collinear calculations
   LSORBIT =      F    spin-orbit coupling
   INIWAV =      1    electr: 0-lowe 1-rand  2-diag
   LASPH  =      F    aspherical Exc in radial PAW
   METAGGA=      F    non-selfconsistent MetaGGA calc.

 Electronic Relaxation 1
   ENCUT  =  400.0 eV  29.40 Ry    5.42 a.u.  32.61 32.61 32.61*2*pi/ulx,y,z
   ENINI  =  400.0     initial cutoff
   ENAUG  =  400.0 eV  augmentation charge cutoff
   NELM   =     60;   NELMIN=  2; NELMDL= -5     # of ELM steps 
   EDIFF  = 0.1E-05   stopping-criterion for ELM
   LREAL  =      F    real-space projection
   NLSPLINE    = F    spline interpolate recip. space projectors
   LCOMPAT=      F    compatible to vasp.4.4
   GGA_COMPAT  = T    GGA compatible to vasp.4.4-vasp.4.6
   LMAXPAW     = -100 max onsite density
   LMAXMIX     =    2 max onsite mixed and CHGCAR
   VOSKOWN=      0    Vosko Wilk Nusair interpolation
   ROPT   =    0.00000   0.00000   0.00000
 Ionic relaxation
   EDIFFG = -.2E-01   stopping-criterion for IOM
   NSW    =    200    number of steps for IOM
   NBLOCK =      1;   KBLOCK =    200    inner block; outer block 
   IBRION =      2    ionic relax: 0-MD 1-quasi-New 2-CG
   NFREE  =      1    steps in history (QN), initial steepest desc. (CG)
   ISIF   =      2    stress and relaxation
   IWAVPR =     11    prediction:  0-non 1-charg 2-wave 3-comb
   ISYM   =      2    0-nonsym 1-usesym 2-fastsym
   LCORR  =      T    Harris-Foulkes like correction to forces

   POTIM  = 0.5000    time-step for ionic-motion
   TEIN   =    0.0    initial temperature
   TEBEG  =    0.0;   TEEND  =   0.0 temperature during run
   SMASS  =  -3.00    Nose mass-parameter (am)
   estimated Nose-frequenzy (Omega)   =  0.10E-29 period in steps =****** mass=  -0.914E-26a.u.
   SCALEE = 1.0000    scale energy and forces
   NPACO  =    256;   APACO  = 16.0  distance and # of slots for P.C.
   PSTRESS=    0.0 pullay stress

  Mass of Ions in am
   POMASS =  28.09 72.61  1.00
  Ionic Valenz
   ZVAL   =   4.00  4.00  1.00
  Atomic Wigner-Seitz radii
   RWIGS  =  -1.00 -1.00 -1.00
  virtual crystal weights 
   VCA    =   1.00  1.00  1.00
   NELECT =      56.0000    total number of electrons
   NUPDOWN=      -1.0000    fix difference up-down

 DOS related values:
   EMIN   =  10.00;   EMAX   =-10.00  energy-range for DOS
   EFERMI =   0.00
   ISMEAR =     0;   SIGMA  =   0.20  broadening in eV -4-tet -1-fermi 0-gaus

 Electronic relaxation 2 (details)
   IALGO  =     38    algorithm
   LDIAG  =      T    sub-space diagonalisation (order eigenvalues)
   LSUBROT=      F    optimize rotation matrix (better conditioning)
   TURBO    =      0    0=normal 1=particle mesh
   IRESTART =      0    0=no restart 2=restart with 2 vectors
   NREBOOT  =      0    no. of reboots
   NMIN     =      0    reboot dimension
   EREF     =   0.00    reference energy to select bands
   IMIX   =      4    mixing-type and parameters
     AMIX     =   0.40;   BMIX     =  1.00
     AMIX_MAG =   1.60;   BMIX_MAG =  1.00
     AMIN     =   0.10
     WC   =   100.;   INIMIX=   1;  MIXPRE=   1;  MAXMIX= -45

 Intra band minimization:
   WEIMIN = 0.0010     energy-eigenvalue tresh-hold
   EBREAK =  0.60E-08  absolut break condition
   DEPER  =   0.30     relativ break condition  

   TIME   =   0.40     timestep for ELM

  volume/ion in A,a.u.               =     307.69      2076.41
  Fermi-wavevector in a.u.,A,eV,Ry     =   0.313166  0.591797  1.334361  0.098073
  Thomas-Fermi vector in A             =   1.193276
 
 Write flags
   LWAVE        =      T    write WAVECAR
   LDOWNSAMPLE  =      F    k-point downsampling of WAVECAR
   LCHARG       =      T    write CHGCAR
   LVTOT        =      F    write LOCPOT, total local potential
   LVHAR        =      F    write LOCPOT, Hartree potential only
   LELF         =      F    write electronic localiz. function (ELF)
   LORBIT       =      0    0 simple, 1 ext, 2 COOP (PROOUT), +10 PAW based schemes


 Dipole corrections
   LMONO  =      F    monopole corrections only (constant potential shift)
   LDIPOL =      F    correct potential (dipole corrections)
   IDIPOL =      0    1-x, 2-y, 3-z, 4-all directions 
   EPSILON=  1.0000000 bulk dielectric constant

 Exchange correlation treatment:
   GGA     =    --    GGA type
   LEXCH   =     8    internal setting for exchange type
   VOSKOWN=      0    Vosko Wilk Nusair interpolation
   LHFCALC =     F    Hartree Fock is set to
   LHFONE  =     F    Hartree Fock one center treatment
   AEXX    =    0.0000 exact exchange contribution

 Linear response parameters
   LEPSILON=     F    determine dielectric tensor
   LRPA    =     F    only Hartree local field effects (RPA)
   LNABLA  =     F    use nabla operator in PAW spheres
   LVEL    =     F    velocity operator in full k-point grid
   LINTERFAST=   F  fast interpolation
   KINTER  =     0    interpolate to denser k-point grid
   CSHIFT  =0.1000    complex shift for real part using Kramers Kronig
   OMEGAMAX=  -1.0    maximum frequency
   DEG_THRESHOLD= 0.2000000E-02 threshold for treating states as degnerate
   RTIME   =   -0.100 relaxation time in fs
  (WPLASMAI=    0.000 imaginary part of plasma frequency in eV, 0.658/RTIME)
   DFIELD  = 0.0000000 0.0000000 0.0000000 field for delta impulse in time
 
 Orbital magnetization related:
   ORBITALMAG=     F  switch on orbital magnetization
   LCHIMAG   =     F  perturbation theory with respect to B field
   DQ        =  0.001000  dq finite difference perturbation B field
   LLRAUG    =     F  two centre corrections for induced B field



--------------------------------------------------------------------------------------------------------


 conjugate gradient relaxation of ions
 charge density and potential will be updated during run
 non-spin polarized calculation
 Variant of blocked Davidson
 Davidson routine will perform the subspace rotation
 perform sub-space diagonalisation
    after iterative eigenvector-optimisation
 modified Broyden-mixing scheme, WC =      100.0
 initial mixing is a Kerker type mixing with AMIX =  0.4000 and BMIX =      1.0000
 Hartree-type preconditioning will be used
 using additional bands           14
 reciprocal scheme for non local part
 use partial core corrections
 calculate Harris-corrections to forces 
   (improved forces if not selfconsistent)
 use gradient corrections 
 use of overlap-Matrix (Vanderbilt PP)
 Gauss-broadening in eV      SIGMA  =   0.20


--------------------------------------------------------------------------------------------------------


  energy-cutoff  :      400.00
  volume of cell :     8000.00
      direct lattice vectors                 reciprocal lattice vectors
    20.000000000  0.000000000  0.000000000     0.050000000  0.000000000  0.000000000
     0.000000000 20.000000000  0.000000000     0.000000000  0.050000000  0.000000000
     0.000000000  0.000000000 20.000000000     0.000000000  0.000000000  0.050000000

  length of vectors
    20.000000000 20.000000000 20.000000000     0.050000000  0.050000000  0.050000000


 
 k-points in units of 2pi/SCALE and weight: Automatic mesh                          
   0.00000000  0.00000000  0.00000000       1.000
 
 k-points in reciprocal lattice and weights: Automatic mesh                          
   0.00000000  0.00000000  0.00000000       1.000
 
 position of ions in fractional coordinates (direct lattice) 
   0.36907800  0.53906000  0.43641200
   0.54179100  0.45744600  0.39613600
   0.53111600  0.64794100  0.43749600
   0.61299700  0.52481700  0.56496600
   0.45095700  0.41593600  0.56388300
   0.44028400  0.60643000  0.60524300
   0.47547100  0.55626000  0.38465300
   0.38461900  0.51474100  0.55243500
   0.55736800  0.43311000  0.51215000
   0.54669200  0.62364400  0.55351800
   0.41490100  0.35665000  0.52940300
   0.46117000  0.40042600  0.63910800
   0.60034800  0.36907000  0.51957800
   0.68182700  0.53600700  0.53118700
   0.62280400  0.50903400  0.64018900
   0.61080000  0.46880600  0.36278200
   0.50550800  0.39805500  0.36207700
   0.46538400  0.57201900  0.30946400
   0.58275500  0.68306700  0.58775000
   0.45052500  0.59044300  0.68036400
   0.39732000  0.67044900  0.59753500
   0.31566200  0.50359800  0.58596500
   0.33322800  0.47946500  0.40225200
   0.32629100  0.60324700  0.42912600
   0.48792300  0.71185500  0.43020800
   0.60015100  0.65882400  0.40403700
 
 position of ions in cartesian coordinates  (Angst):
   7.38156000 10.78120000  8.72824000
  10.83582000  9.14892000  7.92272000
  10.62232000 12.95882000  8.74992000
  12.25994000 10.49634000 11.29932000
   9.01914000  8.31872000 11.27766000
   8.80568000 12.12860000 12.10486000
   9.50942000 11.12520000  7.69306000
   7.69238000 10.29482000 11.04870000
  11.14736000  8.66220000 10.24300000
  10.93384000 12.47288000 11.07036000
   8.29802000  7.13300000 10.58806000
   9.22340000  8.00852000 12.78216000
  12.00696000  7.38140000 10.39156000
  13.63654000 10.72014000 10.62374000
  12.45608000 10.18068000 12.80378000
  12.21600000  9.37612000  7.25564000
  10.11016000  7.96110000  7.24154000
   9.30768000 11.44038000  6.18928000
  11.65510000 13.66134000 11.75500000
   9.01050000 11.80886000 13.60728000
   7.94640000 13.40898000 11.95070000
   6.31324000 10.07196000 11.71930000
   6.66456000  9.58930000  8.04504000
   6.52582000 12.06494000  8.58252000
   9.75846000 14.23710000  8.60416000
  12.00302000 13.17648000  8.08074000
 


--------------------------------------------------------------------------------------------------------


 k-point  1 :   0.0000 0.0000 0.0000  plane waves:  145165

 maximum and minimum number of plane-waves per node :     24209    24180

 maximum number of plane-waves:    145165
 maximum index in each direction: 
   IXMAX=   32   IYMAX=   32   IZMAX=   32
   IXMIN=  -32   IYMIN=  -32   IZMIN=  -32


 parallel 3D FFT for wavefunctions:
    minimum data exchange during FFTs selected (reduces bandwidth)
 parallel 3D FFT for charge:
    minimum data exchange during FFTs selected (reduces bandwidth)


 total amount of memory used by VASP MPI-rank0   131440. kBytes
=======================================================================

   base      :      30000. kBytes
   nonl-proj :      17624. kBytes
   fftplans  :      26957. kBytes
   grid      :      48673. kBytes
   one-center:         40. kBytes
   wavefun   :       8146. kBytes
 
     INWAV:  cpu time    0.0000: real time    0.0000
 Broyden mixing: mesh for mixing (old mesh)
   NGX = 65   NGY = 65   NGZ = 65
  (NGX  =196   NGY  =196   NGZ  =196)
  gives a total of 274625 points

 initial charge density was supplied:
 charge density of overlapping atoms calculated
 number of electron      56.0000000 magnetization 
 keeping initial charge density in first step


--------------------------------------------------------------------------------------------------------


 Maximum index for augmentation-charges          545 (set IRDMAX)


--------------------------------------------------------------------------------------------------------


 First call to EWALD:  gamma=   0.089
 Maximum number of real-space cells 3x 3x 3
 Maximum number of reciprocal cells 3x 3x 3

    FEWALD:  cpu time    0.0030: real time    0.0026


--------------------------------------- Iteration      1(   1)  ---------------------------------------


    POTLOK:  cpu time    1.7667: real time    1.7686
    SETDIJ:  cpu time    0.0070: real time    0.0075
     EDDAV:  cpu time   10.8134: real time   10.8103
       DOS:  cpu time    0.0000: real time    0.0004
    --------------------------------------------
      LOOP:  cpu time   12.5871: real time   12.5867

 eigenvalue-minimisations  :   116
 total energy-change (2. order) : 0.2014635E+03  (-0.1048754E+04)
 number of electron      56.0000000 magnetization 
 augmentation part       56.0000000 magnetization 

 Free energy of the ion-electron system (eV)
  ---------------------------------------------------
  alpha Z        PSCENC =         1.96423985
  Ewald energy   TEWEN  =      2629.98113996
  -Hartree energ DENC   =     -3442.29020773
  -exchange      EXHF   =         0.00000000
  -V(xc)+E(xc)   XCENC  =       -53.12347352
  PAW double counting   =       915.46801746     -752.10009045
  entropy T*S    EENTRO =        -0.42881915
  eigenvalues    EBANDS =      -336.04261805
  atomic energy  EATOM  =      1238.03527989
  Solvation  Ediel_sol  =         0.00000000
  ---------------------------------------------------
  free energy    TOTEN  =       201.46346825 eV

  energy without entropy =      201.89228740  energy(sigma->0) =      201.67787783


--------------------------------------------------------------------------------------------------------




--------------------------------------- Iteration      1(   2)  ---------------------------------------


     EDDAV:  cpu time   12.9230: real time   12.9567
       DOS:  cpu time    0.0000: real time    0.0004
    --------------------------------------------
      LOOP:  cpu time   12.9230: real time   12.9571

 eigenvalue-minimisations  :   144
 total energy-change (2. order) :-0.2309025E+03  (-0.2160729E+03)
 number of electron      56.0000000 magnetization 
 augmentation part       56.0000000 magnetization 

 Free energy of the ion-electron system (eV)
  ---------------------------------------------------
  alpha Z        PSCENC =         1.96423985
  Ewald energy   TEWEN  =      2629.98113996
  -Hartree energ DENC   =     -3442.29020773
  -exchange      EXHF   =         0.00000000
  -V(xc)+E(xc)   XCENC  =       -53.12347352
  PAW double counting   =       915.46801746     -752.10009045
  entropy T*S    EENTRO =        -0.00000000
  eigenvalues    EBANDS =      -567.37395497
  atomic energy  EATOM  =      1238.03527989
  Solvation  Ediel_sol  =         0.00000000
  ---------------------------------------------------
  free energy    TOTEN  =       -29.43904951 eV

  energy without entropy =      -29.43904951  energy(sigma->0) =      -29.43904951


--------------------------------------------------------------------------------------------------------




--------------------------------------- Iteration      1(   3)  ---------------------------------------


     EDDAV:  cpu time   10.5304: real time   10.5299
       DOS:  cpu time    0.0000: real time    0.0003
    --------------------------------------------
      LOOP:  cpu time   10.5304: real time   10.5302

 eigenvalue-minimisations  :   112
 total energy-change (2. order) :-0.7380831E+02  (-0.7365373E+02)
 number of electron      56.0000000 magnetization 
 augmentation part       56.0000000 magnetization 

 Free energy of the ion-electron system (eV)
  ---------------------------------------------------
  alpha Z        PSCENC =         1.96423985
  Ewald energy   TEWEN  =      2629.98113996
  -Hartree energ DENC   =     -3442.29020773
  -exchange      EXHF   =         0.00000000
  -V(xc)+E(xc)   XCENC  =       -53.12347352
  PAW double counting   =       915.46801746     -752.10009045
  entropy T*S    EENTRO =        -0.00000000
  eigenvalues    EBANDS =      -641.18226852
  atomic energy  EATOM  =      1238.03527989
  Solvation  Ediel_sol  =         0.00000000
  ---------------------------------------------------
  free energy    TOTEN  =      -103.24736307 eV

  energy without entropy =     -103.24736307  energy(sigma->0) =     -103.24736307


--------------------------------------------------------------------------------------------------------




--------------------------------------- Iteration      1(   4)  ---------------------------------------


     EDDAV:  cpu time   10.5364: real time   10.5367
       DOS:  cpu time    0.0000: real time    0.0003
    --------------------------------------------
      LOOP:  cpu time   10.5364: real time   10.5370

 eigenvalue-minimisations  :   112
 total energy-change (2. order) :-0.4144547E+01  (-0.4130760E+01)
 number of electron      56.0000000 magnetization 
 augmentation part       56.0000000 magnetization 

 Free energy of the ion-electron system (eV)
  ---------------------------------------------------
  alpha Z        PSCENC =         1.96423985
  Ewald energy   TEWEN  =      2629.98113996
  -Hartree energ DENC   =     -3442.29020773
  -exchange      EXHF   =         0.00000000
  -V(xc)+E(xc)   XCENC  =       -53.12347352
  PAW double counting   =       915.46801746     -752.10009045
  entropy T*S    EENTRO =        -0.00000000
  eigenvalues    EBANDS =      -645.32681585
  atomic energy  EATOM  =      1238.03527989
  Solvation  Ediel_sol  =         0.00000000
  ---------------------------------------------------
  free energy    TOTEN  =      -107.39191039 eV

  energy without entropy =     -107.39191039  energy(sigma->0) =     -107.39191039


--------------------------------------------------------------------------------------------------------




--------------------------------------- Iteration      1(   5)  ---------------------------------------


     EDDAV:  cpu time   12.3081: real time   12.3076
       DOS:  cpu time    0.0000: real time    0.0004
    CHARGE:  cpu time    0.4839: real time    0.4836
    MIXING:  cpu time    0.0460: real time    0.0458
    --------------------------------------------
      LOOP:  cpu time   12.8380: real time   12.8375

 eigenvalue-minimisations  :   136
 total energy-change (2. order) :-0.8434011E-01  (-0.8430386E-01)
 number of electron      56.0000021 magnetization 
 augmentation part       -3.5584432 magnetization 

 Broyden mixing:
  rms(total) = 0.15193E+01    rms(broyden)= 0.15192E+01
  rms(prec ) = 0.16161E+01
  weight for this iteration     100.00

 Free energy of the ion-electron system (eV)
  ---------------------------------------------------
  alpha Z        PSCENC =         1.96423985
  Ewald energy   TEWEN  =      2629.98113996
  -Hartree energ DENC   =     -3442.29020773
  -exchange      EXHF   =         0.00000000
  -V(xc)+E(xc)   XCENC  =       -53.12347352
  PAW double counting   =       915.46801746     -752.10009045
  entropy T*S    EENTRO =        -0.00000000
  eigenvalues    EBANDS =      -645.41115596
  atomic energy  EATOM  =      1238.03527989
  Solvation  Ediel_sol  =         0.00000000
  ---------------------------------------------------
  free energy    TOTEN  =      -107.47625050 eV

  energy without entropy =     -107.47625050  energy(sigma->0) =     -107.47625050


--------------------------------------------------------------------------------------------------------




--------------------------------------- Iteration      1(   6)  ---------------------------------------


    POTLOK:  cpu time    1.7097: real time    1.7100
    SETDIJ:  cpu time    0.0070: real time    0.0076
     EDDAV:  cpu time   10.5584: real time   10.5556
       DOS:  cpu time    0.0000: real time    0.0003
    CHARGE:  cpu time    0.4829: real time    0.4902
    MIXING:  cpu time    0.0470: real time    0.0469
    --------------------------------------------
      LOOP:  cpu time   12.8051: real time   12.8105

 eigenvalue-minimisations  :   112
 total energy-change (2. order) : 0.3271871E+01  (-0.1627699E+00)
 number of electron      56.0000020 magnetization 
 augmentation part       -3.5573825 magnetization 

 Broyden mixing:
  rms(total) = 0.87930E+00    rms(broyden)= 0.87930E+00
  rms(prec ) = 0.93828E+00
  weight for this iteration     100.00

 eigenvalues of (default mixing * dielectric matrix)
  average eigenvalue GAMMA=   2.3053
  2.3053

 Free energy of the ion-electron system (eV)
  ---------------------------------------------------
  alpha Z        PSCENC =         1.96423985
  Ewald energy   TEWEN  =      2629.98113996
  -Hartree energ DENC   =     -3473.73546955
  -exchange      EXHF   =         0.00000000
  -V(xc)+E(xc)   XCENC  =       -49.47888043
  PAW double counting   =      1849.35381319    -1686.72604079
  entropy T*S    EENTRO =        -0.00000000
  eigenvalues    EBANDS =      -613.59846120
  atomic energy  EATOM  =      1238.03527989
  Solvation  Ediel_sol  =         0.00000000
  ---------------------------------------------------
  free energy    TOTEN  =      -104.20437909 eV

  energy without entropy =     -104.20437909  energy(sigma->0) =     -104.20437909


--------------------------------------------------------------------------------------------------------




--------------------------------------- Iteration      1(   7)  ---------------------------------------


    POTLOK:  cpu time    1.7027: real time    1.7013
    SETDIJ:  cpu time    0.0070: real time    0.0076
     EDDAV:  cpu time    9.9615: real time    9.9597
       DOS:  cpu time    0.0000: real time    0.0003
    CHARGE:  cpu time    0.4929: real time    0.4929
    MIXING:  cpu time    0.0480: real time    0.0481
    --------------------------------------------
      LOOP:  cpu time   12.2121: real time   12.2099

 eigenvalue-minimisations  :   104
 total energy-change (2. order) : 0.1706936E+01  (-0.4205454E+00)
 number of electron      56.0000018 magnetization 
 augmentation part       -3.5525715 magnetization 

 Broyden mixing:
  rms(total) = 0.12280E+00    rms(broyden)= 0.12264E+00
  rms(prec ) = 0.15430E+00
  weight for this iteration     100.00

 eigenvalues of (default mixing * dielectric matrix)
  average eigenvalue GAMMA=   1.8387
  1.7363  1.9410

 Free energy of the ion-electron system (eV)
  ---------------------------------------------------
  alpha Z        PSCENC =         1.96423985
  Ewald energy   TEWEN  =      2629.98113996
  -Hartree energ DENC   =     -3529.84633323
  -exchange      EXHF   =         0.00000000
  -V(xc)+E(xc)   XCENC  =       -43.68393368
  PAW double counting   =      3901.67909289    -3740.05441824
  entropy T*S    EENTRO =        -0.00000000
  eigenvalues    EBANDS =      -560.57251101
  atomic energy  EATOM  =      1238.03527989
  Solvation  Ediel_sol  =         0.00000000
  ---------------------------------------------------
  free energy    TOTEN  =      -102.49744357 eV

  energy without entropy =     -102.49744357  energy(sigma->0) =     -102.49744357


--------------------------------------------------------------------------------------------------------




--------------------------------------- Iteration      1(   8)  ---------------------------------------


    POTLOK:  cpu time    1.7857: real time    1.8059
    SETDIJ:  cpu time    0.0080: real time    0.0080
     EDDAV:  cpu time   10.4974: real time   10.4933
       DOS:  cpu time    0.0010: real time    0.0003
    CHARGE:  cpu time    0.4839: real time    0.4847
    MIXING:  cpu time    0.0520: real time    0.0516
    --------------------------------------------
      LOOP:  cpu time   12.8281: real time   12.8438

 eigenvalue-minimisations  :   112
 total energy-change (2. order) : 0.5160863E-01  (-0.2940583E-01)
 number of electron      56.0000018 magnetization 
 augmentation part       -3.5480319 magnetization 

 Broyden mixing:
  rms(total) = 0.62777E-01    rms(broyden)= 0.62764E-01
  rms(prec ) = 0.81724E-01
  weight for this iteration     100.00

 eigenvalues of (default mixing * dielectric matrix)
  average eigenvalue GAMMA=   1.9799
  2.6570  1.6414  1.6414

 Free energy of the ion-electron system (eV)
  ---------------------------------------------------
  alpha Z        PSCENC =         1.96423985
  Ewald energy   TEWEN  =      2629.98113996
  -Hartree energ DENC   =     -3537.68681770
  -exchange      EXHF   =         0.00000000
  -V(xc)+E(xc)   XCENC  =       -43.73132525
  PAW double counting   =      3902.43556644    -3740.73549474
  entropy T*S    EENTRO =        -0.00000000
  eigenvalues    EBANDS =      -552.70842338
  atomic energy  EATOM  =      1238.03527989
  Solvation  Ediel_sol  =         0.00000000
  ---------------------------------------------------
  free energy    TOTEN  =      -102.44583493 eV

  energy without entropy =     -102.44583493  energy(sigma->0) =     -102.44583493


--------------------------------------------------------------------------------------------------------




--------------------------------------- Iteration      1(   9)  ---------------------------------------


    POTLOK:  cpu time    1.7107: real time    1.7101
    SETDIJ:  cpu time    0.0080: real time    0.0076
     EDDAV:  cpu time   10.5444: real time   10.5413
       DOS:  cpu time    0.0000: real time    0.0003
    CHARGE:  cpu time    0.4839: real time    0.4838
    MIXING:  cpu time    0.0550: real time    0.0550
    --------------------------------------------
      LOOP:  cpu time   12.8021: real time   12.7980

 eigenvalue-minimisations  :   112
 total energy-change (2. order) : 0.3592181E-01  (-0.7039356E-02)
 number of electron      56.0000018 magnetization 
 augmentation part       -3.5358547 magnetization 

 Broyden mixing:
  rms(total) = 0.35908E-01    rms(broyden)= 0.35906E-01
  rms(prec ) = 0.47214E-01
  weight for this iteration     100.00

 eigenvalues of (default mixing * dielectric matrix)
  average eigenvalue GAMMA=   1.7550
  2.5076  1.8468  1.8468  0.8189

 Free energy of the ion-electron system (eV)
  ---------------------------------------------------
  alpha Z        PSCENC =         1.96423985
  Ewald energy   TEWEN  =      2629.98113996
  -Hartree energ DENC   =     -3549.49050900
  -exchange      EXHF   =         0.00000000
  -V(xc)+E(xc)   XCENC  =       -43.01817064
  PAW double counting   =      4050.81612105    -3889.15222541
  entropy T*S    EENTRO =        -0.00000000
  eigenvalues    EBANDS =      -541.54578881
  atomic energy  EATOM  =      1238.03527989
  Solvation  Ediel_sol  =         0.00000000
  ---------------------------------------------------
  free energy    TOTEN  =      -102.40991312 eV

  energy without entropy =     -102.40991312  energy(sigma->0) =     -102.40991312


--------------------------------------------------------------------------------------------------------




--------------------------------------- Iteration      1(  10)  ---------------------------------------


    POTLOK:  cpu time    1.7177: real time    1.7167
    SETDIJ:  cpu time    0.0070: real time    0.0077
     EDDAV:  cpu time   11.1293: real time   11.1259
       DOS:  cpu time    0.0010: real time    0.0004
    CHARGE:  cpu time    0.4839: real time    0.4887
    MIXING:  cpu time    0.0570: real time    0.0569
    --------------------------------------------
      LOOP:  cpu time   13.3960: real time   13.3961

 eigenvalue-minimisations  :   120
 total energy-change (2. order) : 0.1473278E-03  (-0.3508256E-03)
 number of electron      56.0000018 magnetization 
 augmentation part       -3.5351955 magnetization 

 Broyden mixing:
  rms(total) = 0.16075E-01    rms(broyden)= 0.16075E-01
  rms(prec ) = 0.28896E-01
  weight for this iteration     100.00

 eigenvalues of (default mixing * dielectric matrix)
  average eigenvalue GAMMA=   1.8353
  2.7250  2.0206  2.0206  1.2053  1.2053

 Free energy of the ion-electron system (eV)
  ---------------------------------------------------
  alpha Z        PSCENC =         1.96423985
  Ewald energy   TEWEN  =      2629.98113996
  -Hartree energ DENC   =     -3551.73620540
  -exchange      EXHF   =         0.00000000
  -V(xc)+E(xc)   XCENC  =       -43.02773621
  PAW double counting   =      3965.71527865    -3804.00301677
  entropy T*S    EENTRO =        -0.00000000
  eigenvalues    EBANDS =      -539.33874577
  atomic energy  EATOM  =      1238.03527989
  Solvation  Ediel_sol  =         0.00000000
  ---------------------------------------------------
  free energy    TOTEN  =      -102.40976579 eV

  energy without entropy =     -102.40976579  energy(sigma->0) =     -102.40976579


--------------------------------------------------------------------------------------------------------




--------------------------------------- Iteration      1(  11)  ---------------------------------------


    POTLOK:  cpu time    1.7267: real time    1.7379
    SETDIJ:  cpu time    0.0080: real time    0.0076
     EDDAV:  cpu time    9.9545: real time    9.9528
       DOS:  cpu time    0.0010: real time    0.0003
    CHARGE:  cpu time    0.4939: real time    0.4941
    MIXING:  cpu time    0.0580: real time    0.0580
    --------------------------------------------
      LOOP:  cpu time   12.2421: real time   12.2507

 eigenvalue-minimisations  :   104
 total energy-change (2. order) : 0.7724561E-04  (-0.5661560E-03)
 number of electron      56.0000018 magnetization 
 augmentation part       -3.5339872 magnetization 

 Broyden mixing:
  rms(total) = 0.82284E-02    rms(broyden)= 0.82282E-02
  rms(prec ) = 0.15097E-01
  weight for this iteration     100.00

 eigenvalues of (default mixing * dielectric matrix)
  average eigenvalue GAMMA=   1.8551
  3.2062  2.5167  1.7455  1.7455  1.0483  0.8680

 Free energy of the ion-electron system (eV)
  ---------------------------------------------------
  alpha Z        PSCENC =         1.96423985
  Ewald energy   TEWEN  =      2629.98113996
  -Hartree energ DENC   =     -3558.17306796
  -exchange      EXHF   =         0.00000000
  -V(xc)+E(xc)   XCENC  =       -42.84143735
  PAW double counting   =      3919.97930785    -3758.23123582
  entropy T*S    EENTRO =        -0.00000000
  eigenvalues    EBANDS =      -533.12391497
  atomic energy  EATOM  =      1238.03527989
  Solvation  Ediel_sol  =         0.00000000
  ---------------------------------------------------
  free energy    TOTEN  =      -102.40968855 eV

  energy without entropy =     -102.40968855  energy(sigma->0) =     -102.40968855


--------------------------------------------------------------------------------------------------------




--------------------------------------- Iteration      1(  12)  ---------------------------------------


    POTLOK:  cpu time    1.7287: real time    1.7278
    SETDIJ:  cpu time    0.0070: real time    0.0079
     EDDAV:  cpu time    9.7755: real time    9.7769
       DOS:  cpu time    0.0010: real time    0.0003
    CHARGE:  cpu time    0.4899: real time    0.4899
    MIXING:  cpu time    0.0630: real time    0.0630
    --------------------------------------------
      LOOP:  cpu time   12.0652: real time   12.0658

 eigenvalue-minimisations  :   102
 total energy-change (2. order) :-0.3817034E-02  (-0.1165648E-03)
 number of electron      56.0000018 magnetization 
 augmentation part       -3.5332294 magnetization 

 Broyden mixing:
  rms(total) = 0.66329E-02    rms(broyden)= 0.66329E-02
  rms(prec ) = 0.10741E-01
  weight for this iteration     100.00

 eigenvalues of (default mixing * dielectric matrix)
  average eigenvalue GAMMA=   2.1093
  4.7501  2.4651  2.4651  1.5421  1.5421  1.0003  1.0003

 Free energy of the ion-electron system (eV)
  ---------------------------------------------------
  alpha Z        PSCENC =         1.96423985
  Ewald energy   TEWEN  =      2629.98113996
  -Hartree energ DENC   =     -3560.65267900
  -exchange      EXHF   =         0.00000000
  -V(xc)+E(xc)   XCENC  =       -42.80066353
  PAW double counting   =      3907.54471973    -3745.78947981
  entropy T*S    EENTRO =        -0.00000000
  eigenvalues    EBANDS =      -530.69606267
  atomic energy  EATOM  =      1238.03527989
  Solvation  Ediel_sol  =         0.00000000
  ---------------------------------------------------
  free energy    TOTEN  =      -102.41350558 eV

  energy without entropy =     -102.41350558  energy(sigma->0) =     -102.41350558


--------------------------------------------------------------------------------------------------------




--------------------------------------- Iteration      1(  13)  ---------------------------------------


    POTLOK:  cpu time    1.7267: real time    1.7297
    SETDIJ:  cpu time    0.0080: real time    0.0076
     EDDAV:  cpu time   10.4954: real time   10.4964
       DOS:  cpu time    0.0010: real time    0.0003
    CHARGE:  cpu time    0.4849: real time    0.4857
    MIXING:  cpu time    0.0690: real time    0.0687
    --------------------------------------------
      LOOP:  cpu time   12.7851: real time   12.7884

 eigenvalue-minimisations  :   112
 total energy-change (2. order) :-0.4997273E-02  (-0.2120172E-03)
 number of electron      56.0000018 magnetization 
 augmentation part       -3.5331518 magnetization 

 Broyden mixing:
  rms(total) = 0.37664E-02    rms(broyden)= 0.37663E-02
  rms(prec ) = 0.54053E-02
  weight for this iteration     100.00

 eigenvalues of (default mixing * dielectric matrix)
  average eigenvalue GAMMA=   2.1562
  5.4546  2.9262  2.2321  1.8045  1.8045  1.0789  0.9744  0.9744

 Free energy of the ion-electron system (eV)
  ---------------------------------------------------
  alpha Z        PSCENC =         1.96423985
  Ewald energy   TEWEN  =      2629.98113996
  -Hartree energ DENC   =     -3563.70592137
  -exchange      EXHF   =         0.00000000
  -V(xc)+E(xc)   XCENC  =       -42.74198708
  PAW double counting   =      3915.92968993    -3754.17997792
  entropy T*S    EENTRO =        -0.00000000
  eigenvalues    EBANDS =      -527.70096612
  atomic energy  EATOM  =      1238.03527989
  Solvation  Ediel_sol  =         0.00000000
  ---------------------------------------------------
  free energy    TOTEN  =      -102.41850285 eV

  energy without entropy =     -102.41850285  energy(sigma->0) =     -102.41850285


--------------------------------------------------------------------------------------------------------




--------------------------------------- Iteration      1(  14)  ---------------------------------------


    POTLOK:  cpu time    1.7267: real time    1.7256
    SETDIJ:  cpu time    0.0070: real time    0.0075
     EDDAV:  cpu time   10.5284: real time   10.5285
       DOS:  cpu time    0.0000: real time    0.0003
    CHARGE:  cpu time    0.4859: real time    0.4857
    MIXING:  cpu time    0.0710: real time    0.0715
    --------------------------------------------
      LOOP:  cpu time   12.8191: real time   12.8191

 eigenvalue-minimisations  :   112
 total energy-change (2. order) :-0.3813347E-02  (-0.2775692E-04)
 number of electron      56.0000018 magnetization 
 augmentation part       -3.5328761 magnetization 

 Broyden mixing:
  rms(total) = 0.17469E-02    rms(broyden)= 0.17468E-02
  rms(prec ) = 0.29097E-02
  weight for this iteration     100.00

 eigenvalues of (default mixing * dielectric matrix)
  average eigenvalue GAMMA=   2.2482
  6.4858  3.0150  2.5460  2.0218  1.7629  1.3243  1.1480  0.9649  0.9649

 Free energy of the ion-electron system (eV)
  ---------------------------------------------------
  alpha Z        PSCENC =         1.96423985
  Ewald energy   TEWEN  =      2629.98113996
  -Hartree energ DENC   =     -3564.33479549
  -exchange      EXHF   =         0.00000000
  -V(xc)+E(xc)   XCENC  =       -42.75581802
  PAW double counting   =      3915.30361644    -3753.55480101
  entropy T*S    EENTRO =        -0.00000000
  eigenvalues    EBANDS =      -527.06117782
  atomic energy  EATOM  =      1238.03527989
  Solvation  Ediel_sol  =         0.00000000
  ---------------------------------------------------
  free energy    TOTEN  =      -102.42231620 eV

  energy without entropy =     -102.42231620  energy(sigma->0) =     -102.42231620


--------------------------------------------------------------------------------------------------------




--------------------------------------- Iteration      1(  15)  ---------------------------------------


    POTLOK:  cpu time    1.7217: real time    1.7221
    SETDIJ:  cpu time    0.0080: real time    0.0076
     EDDAV:  cpu time   10.5434: real time   10.5441
       DOS:  cpu time    0.0000: real time    0.0003
    CHARGE:  cpu time    0.4849: real time    0.4853
    MIXING:  cpu time    0.0820: real time    0.0801
    --------------------------------------------
      LOOP:  cpu time   12.8400: real time   12.8395

 eigenvalue-minimisations  :   112
 total energy-change (2. order) :-0.4236772E-02  (-0.4842762E-04)
 number of electron      56.0000018 magnetization 
 augmentation part       -3.5324510 magnetization 

 Broyden mixing:
  rms(total) = 0.16658E-02    rms(broyden)= 0.16658E-02
  rms(prec ) = 0.21692E-02
  weight for this iteration     100.00

 eigenvalues of (default mixing * dielectric matrix)
  average eigenvalue GAMMA=   2.3435
  6.8052  3.9829  2.6313  2.0530  2.0530  1.6903  1.2396  0.9487  1.0154  1.0154

 Free energy of the ion-electron system (eV)
  ---------------------------------------------------
  alpha Z        PSCENC =         1.96423985
  Ewald energy   TEWEN  =      2629.98113996
  -Hartree energ DENC   =     -3564.62408549
  -exchange      EXHF   =         0.00000000
  -V(xc)+E(xc)   XCENC  =       -42.76454341
  PAW double counting   =      3919.27132990    -3757.52426447
  entropy T*S    EENTRO =        -0.00000000
  eigenvalues    EBANDS =      -526.76564920
  atomic energy  EATOM  =      1238.03527989
  Solvation  Ediel_sol  =         0.00000000
  ---------------------------------------------------
  free energy    TOTEN  =      -102.42655297 eV

  energy without entropy =     -102.42655297  energy(sigma->0) =     -102.42655297


--------------------------------------------------------------------------------------------------------




--------------------------------------- Iteration      1(  16)  ---------------------------------------


    POTLOK:  cpu time    1.7167: real time    1.7174
    SETDIJ:  cpu time    0.0130: real time    0.0129
     EDDAV:  cpu time   10.5604: real time   10.5568
       DOS:  cpu time    0.0000: real time    0.0004
    CHARGE:  cpu time    0.4889: real time    0.4880
    MIXING:  cpu time    0.0900: real time    0.0904
    --------------------------------------------
      LOOP:  cpu time   12.8690: real time   12.8658

 eigenvalue-minimisations  :   112
 total energy-change (2. order) :-0.1727350E-02  (-0.1421351E-04)
 number of electron      56.0000018 magnetization 
 augmentation part       -3.5326138 magnetization 

 Broyden mixing:
  rms(total) = 0.71069E-03    rms(broyden)= 0.71069E-03
  rms(prec ) = 0.98833E-03
  weight for this iteration     100.00

 eigenvalues of (default mixing * dielectric matrix)
  average eigenvalue GAMMA=   2.4535
  7.4498  4.8068  2.7152  2.7152  1.8225  1.8225  1.3480  1.3480  0.9963  0.9963
  0.9679

 Free energy of the ion-electron system (eV)
  ---------------------------------------------------
  alpha Z        PSCENC =         1.96423985
  Ewald energy   TEWEN  =      2629.98113996
  -Hartree energ DENC   =     -3564.73573065
  -exchange      EXHF   =         0.00000000
  -V(xc)+E(xc)   XCENC  =       -42.76284415
  PAW double counting   =      3919.16184830    -3757.41359567
  entropy T*S    EENTRO =        -0.00000000
  eigenvalues    EBANDS =      -526.65861784
  atomic energy  EATOM  =      1238.03527989
  Solvation  Ediel_sol  =         0.00000000
  ---------------------------------------------------
  free energy    TOTEN  =      -102.42828032 eV

  energy without entropy =     -102.42828032  energy(sigma->0) =     -102.42828032


--------------------------------------------------------------------------------------------------------




--------------------------------------- Iteration      1(  17)  ---------------------------------------


    POTLOK:  cpu time    1.7167: real time    1.7161
    SETDIJ:  cpu time    0.0070: real time    0.0076
     EDDAV:  cpu time   10.1415: real time   10.1372
       DOS:  cpu time    0.0010: real time    0.0003
    CHARGE:  cpu time    0.4839: real time    0.4846
    MIXING:  cpu time    0.0990: real time    0.0984
    --------------------------------------------
      LOOP:  cpu time   12.4491: real time   12.4441

 eigenvalue-minimisations  :   104
 total energy-change (2. order) :-0.9351564E-03  (-0.8340381E-05)
 number of electron      56.0000018 magnetization 
 augmentation part       -3.5328100 magnetization 

 Broyden mixing:
  rms(total) = 0.63272E-03    rms(broyden)= 0.63271E-03
  rms(prec ) = 0.71373E-03
  weight for this iteration     100.00

 eigenvalues of (default mixing * dielectric matrix)
  average eigenvalue GAMMA=   2.4648
  7.8146  5.2800  2.7227  2.7227  2.0049  2.0049  1.4689  1.4689  0.9705  0.9705
  1.0745  1.0745

 Free energy of the ion-electron system (eV)
  ---------------------------------------------------
  alpha Z        PSCENC =         1.96423985
  Ewald energy   TEWEN  =      2629.98113996
  -Hartree energ DENC   =     -3564.73072711
  -exchange      EXHF   =         0.00000000
  -V(xc)+E(xc)   XCENC  =       -42.76678483
  PAW double counting   =      3916.15397956    -3754.40381219
  entropy T*S    EENTRO =        -0.00000000
  eigenvalues    EBANDS =      -526.66253060
  atomic energy  EATOM  =      1238.03527989
  Solvation  Ediel_sol  =         0.00000000
  ---------------------------------------------------
  free energy    TOTEN  =      -102.42921548 eV

  energy without entropy =     -102.42921548  energy(sigma->0) =     -102.42921548


--------------------------------------------------------------------------------------------------------




--------------------------------------- Iteration      1(  18)  ---------------------------------------


    POTLOK:  cpu time    1.6927: real time    1.7391
    SETDIJ:  cpu time    0.0060: real time    0.0106
     EDDAV:  cpu time   10.4864: real time   10.5142
       DOS:  cpu time    0.0000: real time    0.0003
    CHARGE:  cpu time    0.4879: real time    0.4879
    MIXING:  cpu time    0.1070: real time    0.1077
    --------------------------------------------
      LOOP:  cpu time   12.7801: real time   12.8598

 eigenvalue-minimisations  :   112
 total energy-change (2. order) :-0.2427479E-03  (-0.8507253E-06)
 number of electron      56.0000018 magnetization 
 augmentation part       -3.5328529 magnetization 

 Broyden mixing:
  rms(total) = 0.22223E-03    rms(broyden)= 0.22220E-03
  rms(prec ) = 0.28259E-03
  weight for this iteration     100.00

 eigenvalues of (default mixing * dielectric matrix)
  average eigenvalue GAMMA=   2.4794
  8.1269  5.7208  3.0924  2.7566  2.2017  1.8516  1.8516  1.3210  1.3210  0.9759
  0.9759  1.0184  1.0184

 Free energy of the ion-electron system (eV)
  ---------------------------------------------------
  alpha Z        PSCENC =         1.96423985
  Ewald energy   TEWEN  =      2629.98113996
  -Hartree energ DENC   =     -3564.76647702
  -exchange      EXHF   =         0.00000000
  -V(xc)+E(xc)   XCENC  =       -42.76515208
  PAW double counting   =      3917.07088902    -3755.32143832
  entropy T*S    EENTRO =        -0.00000000
  eigenvalues    EBANDS =      -526.62793952
  atomic energy  EATOM  =      1238.03527989
  Solvation  Ediel_sol  =         0.00000000
  ---------------------------------------------------
  free energy    TOTEN  =      -102.42945823 eV

  energy without entropy =     -102.42945823  energy(sigma->0) =     -102.42945823


--------------------------------------------------------------------------------------------------------




--------------------------------------- Iteration      1(  19)  ---------------------------------------


    POTLOK:  cpu time    1.7267: real time    1.7255
    SETDIJ:  cpu time    0.0080: real time    0.0077
     EDDAV:  cpu time    9.9605: real time    9.9614
       DOS:  cpu time    0.0000: real time    0.0003
    CHARGE:  cpu time    0.4849: real time    0.4846
    MIXING:  cpu time    0.1200: real time    0.1199
    --------------------------------------------
      LOOP:  cpu time   12.3001: real time   12.2995

 eigenvalue-minimisations  :   104
 total energy-change (2. order) :-0.1300729E-03  (-0.3590491E-06)
 number of electron      56.0000018 magnetization 
 augmentation part       -3.5328644 magnetization 

 Broyden mixing:
  rms(total) = 0.19245E-03    rms(broyden)= 0.19244E-03
  rms(prec ) = 0.22861E-03
  weight for this iteration     100.00

 eigenvalues of (default mixing * dielectric matrix)
  average eigenvalue GAMMA=   2.5116
  8.3670  6.1998  3.5023  2.5368  2.5368  2.0234  2.0234  1.4496  1.4496  1.0699
  1.0699  0.9738  0.9738  0.9859

 Free energy of the ion-electron system (eV)
  ---------------------------------------------------
  alpha Z        PSCENC =         1.96423985
  Ewald energy   TEWEN  =      2629.98113996
  -Hartree energ DENC   =     -3564.77853644
  -exchange      EXHF   =         0.00000000
  -V(xc)+E(xc)   XCENC  =       -42.76451561
  PAW double counting   =      3916.95753354    -3755.20833299
  entropy T*S    EENTRO =        -0.00000000
  eigenvalues    EBANDS =      -526.61639649
  atomic energy  EATOM  =      1238.03527989
  Solvation  Ediel_sol  =         0.00000000
  ---------------------------------------------------
  free energy    TOTEN  =      -102.42958830 eV

  energy without entropy =     -102.42958830  energy(sigma->0) =     -102.42958830


--------------------------------------------------------------------------------------------------------




--------------------------------------- Iteration      1(  20)  ---------------------------------------


    POTLOK:  cpu time    1.7227: real time    1.7237
    SETDIJ:  cpu time    0.0070: real time    0.0076
     EDDAV:  cpu time    8.7207: real time    8.7866
       DOS:  cpu time    0.0000: real time    0.0004
    CHARGE:  cpu time    0.4849: real time    0.4850
    MIXING:  cpu time    0.1340: real time    0.1334
    --------------------------------------------
      LOOP:  cpu time   11.0693: real time   11.1367

 eigenvalue-minimisations  :    88
 total energy-change (2. order) :-0.5254240E-04  (-0.1099072E-06)
 number of electron      56.0000018 magnetization 
 augmentation part       -3.5328388 magnetization 

 Broyden mixing:
  rms(total) = 0.48748E-04    rms(broyden)= 0.48748E-04
  rms(prec ) = 0.71821E-04
  weight for this iteration     100.00

 eigenvalues of (default mixing * dielectric matrix)
  average eigenvalue GAMMA=   2.5499
  8.6696  6.4445  4.2171  2.9070  2.5719  1.9296  1.9296  1.6449  1.6449  1.1606
  1.1606  1.0311  1.0311  0.9532  0.9532

 Free energy of the ion-electron system (eV)
  ---------------------------------------------------
  alpha Z        PSCENC =         1.96423985
  Ewald energy   TEWEN  =      2629.98113996
  -Hartree energ DENC   =     -3564.78995031
  -exchange      EXHF   =         0.00000000
  -V(xc)+E(xc)   XCENC  =       -42.76491915
  PAW double counting   =      3916.92586597    -3755.17680968
  entropy T*S    EENTRO =        -0.00000000
  eigenvalues    EBANDS =      -526.60448738
  atomic energy  EATOM  =      1238.03527989
  Solvation  Ediel_sol  =         0.00000000
  ---------------------------------------------------
  free energy    TOTEN  =      -102.42964084 eV

  energy without entropy =     -102.42964084  energy(sigma->0) =     -102.42964084


--------------------------------------------------------------------------------------------------------




--------------------------------------- Iteration      1(  21)  ---------------------------------------


    POTLOK:  cpu time    1.7137: real time    1.7243
    SETDIJ:  cpu time    0.0080: real time    0.0077
     EDDAV:  cpu time    8.2317: real time    8.2292
       DOS:  cpu time    0.0000: real time    0.0003
    CHARGE:  cpu time    0.4939: real time    0.4941
    MIXING:  cpu time    0.1440: real time    0.1431
    --------------------------------------------
      LOOP:  cpu time   10.5914: real time   10.5988

 eigenvalue-minimisations  :    80
 total energy-change (2. order) :-0.2034800E-04  (-0.7607549E-07)
 number of electron      56.0000018 magnetization 
 augmentation part       -3.5328177 magnetization 

 Broyden mixing:
  rms(total) = 0.58179E-04    rms(broyden)= 0.58175E-04
  rms(prec ) = 0.70718E-04
  weight for this iteration     100.00

 eigenvalues of (default mixing * dielectric matrix)
  average eigenvalue GAMMA=   2.5474
  8.6269  6.6611  4.2792  3.0623  2.6031  2.2129  2.1186  2.1186  1.7118  1.2685
  1.0904  1.0904  1.0662  0.9534  0.9534  0.9418

 Free energy of the ion-electron system (eV)
  ---------------------------------------------------
  alpha Z        PSCENC =         1.96423985
  Ewald energy   TEWEN  =      2629.98113996
  -Hartree energ DENC   =     -3564.79390755
  -exchange      EXHF   =         0.00000000
  -V(xc)+E(xc)   XCENC  =       -42.76523401
  PAW double counting   =      3916.94849692    -3755.19944992
  entropy T*S    EENTRO =        -0.00000000
  eigenvalues    EBANDS =      -526.60022633
  atomic energy  EATOM  =      1238.03527989
  Solvation  Ediel_sol  =         0.00000000
  ---------------------------------------------------
  free energy    TOTEN  =      -102.42966119 eV

  energy without entropy =     -102.42966119  energy(sigma->0) =     -102.42966119


--------------------------------------------------------------------------------------------------------




--------------------------------------- Iteration      1(  22)  ---------------------------------------


    POTLOK:  cpu time    1.7157: real time    1.7155
    SETDIJ:  cpu time    0.0090: real time    0.0088
     EDDAV:  cpu time    8.8007: real time    8.7978
       DOS:  cpu time    0.0010: real time    0.0003
    CHARGE:  cpu time    0.4869: real time    0.4869
    MIXING:  cpu time    0.1560: real time    0.1564
    --------------------------------------------
      LOOP:  cpu time   11.1693: real time   11.1658

 eigenvalue-minimisations  :    88
 total energy-change (2. order) :-0.7888328E-05  (-0.2123871E-07)
 number of electron      56.0000018 magnetization 
 augmentation part       -3.5328321 magnetization 

 Broyden mixing:
  rms(total) = 0.30166E-04    rms(broyden)= 0.30165E-04
  rms(prec ) = 0.34434E-04
  weight for this iteration     100.00

 eigenvalues of (default mixing * dielectric matrix)
  average eigenvalue GAMMA=   2.5282
  8.7650  6.8252  4.6412  3.3467  2.5679  2.5679  1.9821  1.9821  1.5820  1.5820
  1.1155  1.1155  1.0349  1.0349  0.9647  0.9647  0.9066

 Free energy of the ion-electron system (eV)
  ---------------------------------------------------
  alpha Z        PSCENC =         1.96423985
  Ewald energy   TEWEN  =      2629.98113996
  -Hartree energ DENC   =     -3564.79110791
  -exchange      EXHF   =         0.00000000
  -V(xc)+E(xc)   XCENC  =       -42.76508346
  PAW double counting   =      3916.97490258    -3755.22570418
  entropy T*S    EENTRO =        -0.00000000
  eigenvalues    EBANDS =      -526.60333581
  atomic energy  EATOM  =      1238.03527989
  Solvation  Ediel_sol  =         0.00000000
  ---------------------------------------------------
  free energy    TOTEN  =      -102.42966908 eV

  energy without entropy =     -102.42966908  energy(sigma->0) =     -102.42966908


--------------------------------------------------------------------------------------------------------




--------------------------------------- Iteration      1(  23)  ---------------------------------------


    POTLOK:  cpu time    1.7177: real time    1.7174
    SETDIJ:  cpu time    0.0080: real time    0.0077
     EDDAV:  cpu time    8.7547: real time    8.7600
       DOS:  cpu time    0.0000: real time    0.0003
    CHARGE:  cpu time    0.4929: real time    0.4926
    MIXING:  cpu time    0.1680: real time    0.1667
    --------------------------------------------
      LOOP:  cpu time   11.1413: real time   11.1447

 eigenvalue-minimisations  :    88
 total energy-change (2. order) :-0.1976030E-05  (-0.5165585E-08)
 number of electron      56.0000018 magnetization 
 augmentation part       -3.5328370 magnetization 

 Broyden mixing:
  rms(total) = 0.15382E-04    rms(broyden)= 0.15382E-04
  rms(prec ) = 0.19448E-04
  weight for this iteration     100.00

 eigenvalues of (default mixing * dielectric matrix)
  average eigenvalue GAMMA=   2.5417
  8.8338  6.9290  4.9551  3.4704  2.6505  2.6505  2.1924  1.9943  1.9943  1.5544
  1.2780  1.1460  1.1460  1.0314  1.0314  0.9521  0.9521  0.9884

 Free energy of the ion-electron system (eV)
  ---------------------------------------------------
  alpha Z        PSCENC =         1.96423985
  Ewald energy   TEWEN  =      2629.98113996
  -Hartree energ DENC   =     -3564.79082390
  -exchange      EXHF   =         0.00000000
  -V(xc)+E(xc)   XCENC  =       -42.76516665
  PAW double counting   =      3916.94279413    -3755.19360608
  entropy T*S    EENTRO =        -0.00000000
  eigenvalues    EBANDS =      -526.60352827
  atomic energy  EATOM  =      1238.03527989
  Solvation  Ediel_sol  =         0.00000000
  ---------------------------------------------------
  free energy    TOTEN  =      -102.42967106 eV

  energy without entropy =     -102.42967106  energy(sigma->0) =     -102.42967106


--------------------------------------------------------------------------------------------------------




--------------------------------------- Iteration      1(  24)  ---------------------------------------


    POTLOK:  cpu time    1.7337: real time    1.7358
    SETDIJ:  cpu time    0.0070: real time    0.0077
     EDDAV:  cpu time    8.2178: real time    8.2135
       DOS:  cpu time    0.0000: real time    0.0003
    CHARGE:  cpu time    0.4869: real time    0.4866
    MIXING:  cpu time    0.1810: real time    0.1815
    --------------------------------------------
      LOOP:  cpu time   10.6264: real time   10.6254

 eigenvalue-minimisations  :    80
 total energy-change (2. order) :-0.2035856E-05  (-0.2932662E-08)
 number of electron      56.0000018 magnetization 
 augmentation part       -3.5328349 magnetization 

 Broyden mixing:
  rms(total) = 0.68763E-05    rms(broyden)= 0.68762E-05
  rms(prec ) = 0.89125E-05
  weight for this iteration     100.00

 eigenvalues of (default mixing * dielectric matrix)
  average eigenvalue GAMMA=   2.5409
  8.8710  7.1018  5.4678  3.8729  2.9133  2.5565  2.0264  2.0264  2.0758  1.5425
  1.5425  1.2035  1.1144  1.1144  1.0170  1.0170  0.9539  0.9296  0.9296

 Free energy of the ion-electron system (eV)
  ---------------------------------------------------
  alpha Z        PSCENC =         1.96423985
  Ewald energy   TEWEN  =      2629.98113996
  -Hartree energ DENC   =     -3564.79211078
  -exchange      EXHF   =         0.00000000
  -V(xc)+E(xc)   XCENC  =       -42.76514686
  PAW double counting   =      3916.92581482    -3755.17666043
  entropy T*S    EENTRO =        -0.00000000
  eigenvalues    EBANDS =      -526.60222953
  atomic energy  EATOM  =      1238.03527989
  Solvation  Ediel_sol  =         0.00000000
  ---------------------------------------------------
  free energy    TOTEN  =      -102.42967309 eV

  energy without entropy =     -102.42967309  energy(sigma->0) =     -102.42967309


--------------------------------------------------------------------------------------------------------




--------------------------------------- Iteration      1(  25)  ---------------------------------------


    POTLOK:  cpu time    1.7297: real time    1.7323
    SETDIJ:  cpu time    0.0070: real time    0.0077
     EDDAV:  cpu time    8.2008: real time    8.2042
       DOS:  cpu time    0.0010: real time    0.0003
    --------------------------------------------
      LOOP:  cpu time    9.9385: real time    9.9444

 eigenvalue-minimisations  :    80
 total energy-change (2. order) :-0.4452099E-06  (-0.6456489E-09)
 number of electron      56.0000018 magnetization 
 augmentation part       -3.5328349 magnetization 

 Free energy of the ion-electron system (eV)
  ---------------------------------------------------
  alpha Z        PSCENC =         1.96423985
  Ewald energy   TEWEN  =      2629.98113996
  -Hartree energ DENC   =     -3564.79269749
  -exchange      EXHF   =         0.00000000
  -V(xc)+E(xc)   XCENC  =       -42.76514722
  PAW double counting   =      3916.92160723    -3755.17245502
  entropy T*S    EENTRO =        -0.00000000
  eigenvalues    EBANDS =      -526.60164074
  atomic energy  EATOM  =      1238.03527989
  Solvation  Ediel_sol  =         0.00000000
  ---------------------------------------------------
  free energy    TOTEN  =      -102.42967354 eV

  energy without entropy =     -102.42967354  energy(sigma->0) =     -102.42967354


--------------------------------------------------------------------------------------------------------




 average (electrostatic) potential at core
  the test charge radii are     0.9892  1.1631  0.5201
  (the norm of the test charge is              1.0000)
       1 -93.5211       2 -93.5211       3 -93.5210       4 -93.5211       5 -93.5211
       6 -93.5211       7 -40.3408       8 -40.3408       9 -40.3408      10 -40.3408
      11 -40.6984      12 -40.6982      13 -41.0768      14 -40.6988      15 -40.6984
      16 -40.6987      17 -40.6994      18 -41.0768      19 -41.0772      20 -40.6983
      21 -40.6985      22 -41.0770      23 -40.6986      24 -40.6987      25 -40.6983
      26 -40.6984
 
 
 
 E-fermi :  -5.4182     XC(G=0):  -0.6074     alpha+bet : -0.3388


 k-point     1 :       0.0000    0.0000    0.0000
  band No.  band energies     occupation 
      1     -15.2035      2.00000
      2     -14.1571      2.00000
      3     -14.1571      2.00000
      4     -14.1571      2.00000
      5     -12.5691      2.00000
      6     -12.5691      2.00000
      7     -11.5869      2.00000
      8     -11.5869      2.00000
      9     -11.5869      2.00000
     10     -10.5176      2.00000
     11      -8.9951      2.00000
     12      -8.6221      2.00000
     13      -8.6221      2.00000
     14      -8.6221      2.00000
     15      -8.2138      2.00000
     16      -8.2138      2.00000
     17      -8.2138      2.00000
     18      -7.8665      2.00000
     19      -7.8665      2.00000
     20      -7.8665      2.00000
     21      -6.7742      2.00000
     22      -6.7741      2.00000
     23      -6.4728      2.00000
     24      -6.4728      2.00000
     25      -6.4727      2.00000
     26      -6.3802      2.00000
     27      -6.3802      2.00000
     28      -6.3801      2.00000
     29      -1.6139      0.00000
     30      -1.3730      0.00000
     31      -1.3729      0.00000
     32      -1.3728      0.00000
     33      -1.0260      0.00000
     34      -1.0260      0.00000
     35      -1.0259      0.00000
     36      -0.9268      0.00000
     37      -0.9263      0.00000
     38      -0.6196      0.00000
     39      -0.3388      0.00000
     40      -0.2971      0.00000
     41      -0.2970      0.00000
     42      -0.2967      0.00000


--------------------------------------------------------------------------------------------------------


 soft charge-density along one line, spin component           1
         0         1         2         3         4         5         6         7         8         9
 total charge-density along one line
 
 pseudopotential strength for first ion, spin component:           1
 19.627  27.390  -0.000   0.002   0.004  -0.000   0.004   0.008
 27.390  38.228  -0.000   0.003   0.006  -0.001   0.006   0.011
 -0.000  -0.000   4.360  -0.000   0.000   8.133  -0.000   0.000
  0.002   0.003  -0.000   4.361  -0.000  -0.000   8.134  -0.000
  0.004   0.006   0.000  -0.000   4.360   0.000  -0.000   8.134
 -0.000  -0.001   8.133  -0.000   0.000  15.181  -0.001   0.000
  0.004   0.006  -0.000   8.134  -0.000  -0.001  15.184  -0.001
  0.008   0.011   0.000  -0.000   8.134   0.000  -0.001  15.183
 total augmentation occupancy for first ion, spin component:           1
  5.677  -2.095   0.022  -0.199  -0.377  -0.006   0.058   0.110
 -2.095   0.826  -0.013   0.118   0.224   0.003  -0.024  -0.046
  0.022  -0.013   3.389   0.148  -0.057  -0.807  -0.050   0.019
 -0.199   0.118   0.148   2.779   0.137  -0.050  -0.599  -0.047
 -0.377   0.224  -0.057   0.137   2.947   0.019  -0.047  -0.657
 -0.006   0.003  -0.807  -0.050   0.019   0.193   0.014  -0.005
  0.058  -0.024  -0.050  -0.599  -0.047   0.014   0.136   0.013
  0.110  -0.046   0.019  -0.047  -0.657  -0.005   0.013   0.152


------------------------ aborting loop because EDIFF is reached ----------------------------------------


    CHARGE:  cpu time    0.4759: real time    0.4756
    FORLOC:  cpu time    0.1720: real time    0.1722
    FORNL :  cpu time    1.0848: real time    1.0837
    STRESS:  cpu time    7.9988: real time    7.9950
    FORCOR:  cpu time    1.7127: real time    1.7130
    FORHAR:  cpu time    0.5789: real time    0.5787
    MIXING:  cpu time    0.1910: real time    0.1914
    OFIELD:  cpu time    0.0000: real time    0.0000

  FORCE on cell =-STRESS in cart. coord.  units (eV):
  Direction    XX          YY          ZZ          XY          YZ          ZX
  --------------------------------------------------------------------------------------
  Alpha Z     1.96424     1.96424     1.96424
  Ewald     876.64706   876.62235   876.71007    -0.21850     0.02563    -0.50464
  Hartree  1188.24944  1188.22368  1188.31967    -0.21538     0.02559    -0.49739
  E(xc)    -177.27526  -177.27548  -177.27563    -0.00000    -0.00000    -0.00006
  Local   -2568.27139 -2568.22068 -2568.40335     0.43397    -0.05140     1.00244
  n-local   272.06641   272.06742   272.06749     0.00020     0.00010     0.00064
  augment   -27.47232   -27.47414   -27.47231    -0.00015    -0.00002    -0.00027
  Kinetic   429.86074   429.86001   429.85959    -0.00018     0.00015    -0.00039
  Fock        0.00000     0.00000     0.00000     0.00000     0.00000     0.00000
  -------------------------------------------------------------------------------------
  Total      -4.23110    -4.23259    -4.23023    -0.00004     0.00006     0.00033
  in kB      -0.84737    -0.84767    -0.84720    -0.00001     0.00001     0.00007
  external pressure =       -0.85 kB  Pullay stress =        0.00 kB


 VOLUME and BASIS-vectors are now :
 -----------------------------------------------------------------------------
  energy-cutoff  :      400.00
[...]
  free energy    TOTEN  =      -102.70223222 eV

  energy without entropy =     -102.70223222  energy(sigma->0) =     -102.70223222


--------------------------------------------------------------------------------------------------------




--------------------------------------- Iteration     13(   3)  ---------------------------------------


    POTLOK:  cpu time    1.7147: real time    1.7185
    SETDIJ:  cpu time    0.0130: real time    0.0129
     EDDAV:  cpu time   10.5154: real time   10.5835
       DOS:  cpu time    0.0010: real time    0.0003
    CHARGE:  cpu time    0.4879: real time    0.4909
    MIXING:  cpu time    0.0510: real time    0.0501
    --------------------------------------------
      LOOP:  cpu time   12.7831: real time   12.8562

 eigenvalue-minimisations  :   112
 total energy-change (2. order) : 0.1039754E-04  (-0.6849584E-05)
 number of electron      56.0000006 magnetization 
 augmentation part       -3.5264401 magnetization 

 Broyden mixing:
  rms(total) = 0.22972E-02    rms(broyden)= 0.22971E-02
  rms(prec ) = 0.24200E-02
  weight for this iteration     100.00

 eigenvalues of (default mixing * dielectric matrix)
  average eigenvalue GAMMA=   1.6021
  1.0220  2.1821

 Free energy of the ion-electron system (eV)
  ---------------------------------------------------
  alpha Z        PSCENC =         1.96423985
  Ewald energy   TEWEN  =      2631.24770404
  -Hartree energ DENC   =     -3565.74180693
  -exchange      EXHF   =         0.00000000
  -V(xc)+E(xc)   XCENC  =       -42.01917079
  PAW double counting   =      4144.69928093    -3983.05178877
  entropy T*S    EENTRO =        -0.00000000
  eigenvalues    EBANDS =      -527.83596005
  atomic energy  EATOM  =      1238.03527989
  Solvation  Ediel_sol  =         0.00000000
  ---------------------------------------------------
  free energy    TOTEN  =      -102.70222182 eV

  energy without entropy =     -102.70222182  energy(sigma->0) =     -102.70222182


--------------------------------------------------------------------------------------------------------




--------------------------------------- Iteration     13(   4)  ---------------------------------------


    POTLOK:  cpu time    1.7277: real time    1.7294
    SETDIJ:  cpu time    0.0080: real time    0.0087
     EDDAV:  cpu time    9.9845: real time   10.0054
       DOS:  cpu time    0.0000: real time    0.0003
    CHARGE:  cpu time    0.4819: real time    0.4843
    MIXING:  cpu time    0.0530: real time    0.0538
    --------------------------------------------
      LOOP:  cpu time   12.2551: real time   12.2819

 eigenvalue-minimisations  :   104
 total energy-change (2. order) :-0.4150168E-05  (-0.3029325E-05)
 number of electron      56.0000006 magnetization 
 augmentation part       -3.5261494 magnetization 

 Broyden mixing:
  rms(total) = 0.44486E-03    rms(broyden)= 0.44467E-03
  rms(prec ) = 0.53642E-03
  weight for this iteration     100.00

 eigenvalues of (default mixing * dielectric matrix)
  average eigenvalue GAMMA=   1.5533
  2.4511  1.1044  1.1044

 Free energy of the ion-electron system (eV)
  ---------------------------------------------------
  alpha Z        PSCENC =         1.96423985
  Ewald energy   TEWEN  =      2631.24770404
  -Hartree energ DENC   =     -3565.68889639
  -exchange      EXHF   =         0.00000000
  -V(xc)+E(xc)   XCENC  =       -42.02540675
  PAW double counting   =      4143.11736534    -3981.46968730
  entropy T*S    EENTRO =        -0.00000000
  eigenvalues    EBANDS =      -527.88282466
  atomic energy  EATOM  =      1238.03527989
  Solvation  Ediel_sol  =         0.00000000
  ---------------------------------------------------
  free energy    TOTEN  =      -102.70222597 eV

  energy without entropy =     -102.70222597  energy(sigma->0) =     -102.70222597


--------------------------------------------------------------------------------------------------------




--------------------------------------- Iteration     13(   5)  ---------------------------------------


    POTLOK:  cpu time    1.7417: real time    1.7464
    SETDIJ:  cpu time    0.0070: real time    0.0076
     EDDAV:  cpu time   10.0105: real time   10.0295
       DOS:  cpu time    0.0000: real time    0.0003
    --------------------------------------------
      LOOP:  cpu time   11.7592: real time   11.7837

 eigenvalue-minimisations  :   104
 total energy-change (2. order) : 0.3420491E-06  (-0.3880259E-06)
 number of electron      56.0000006 magnetization 
 augmentation part       -3.5261494 magnetization 

 Free energy of the ion-electron system (eV)
  ---------------------------------------------------
  alpha Z        PSCENC =         1.96423985
  Ewald energy   TEWEN  =      2631.24770404
  -Hartree energ DENC   =     -3565.66984351
  -exchange      EXHF   =         0.00000000
  -V(xc)+E(xc)   XCENC  =       -42.02539230
  PAW double counting   =      4143.07104792    -3981.42328532
  entropy T*S    EENTRO =        -0.00000000
  eigenvalues    EBANDS =      -527.90197621
  atomic energy  EATOM  =      1238.03527989
  Solvation  Ediel_sol  =         0.00000000
  ---------------------------------------------------
  free energy    TOTEN  =      -102.70222563 eV

  energy without entropy =     -102.70222563  energy(sigma->0) =     -102.70222563


--------------------------------------------------------------------------------------------------------




 average (electrostatic) potential at core
  the test charge radii are     0.9892  1.1631  0.5201
  (the norm of the test charge is              1.0000)
       1 -93.4055       2 -93.4055       3 -93.4055       4 -93.4056       5 -93.4056
       6 -93.4056       7 -40.3281       8 -40.3281       9 -40.3282      10 -40.3283
      11 -40.8387      12 -40.8376      13 -40.9984      14 -40.8377      15 -40.8386
      16 -40.8373      17 -40.8382      18 -40.9974      19 -40.9978      20 -40.8386
      21 -40.8390      22 -40.9971      23 -40.8377      24 -40.8390      25 -40.8389
      26 -40.8372
 
 
 
 E-fermi :  -5.4072     XC(G=0):  -0.6054     alpha+bet : -0.3388


 k-point     1 :       0.0000    0.0000    0.0000
  band No.  band energies     occupation 
      1     -15.1416      2.00000
      2     -14.1218      2.00000
      3     -14.1217      2.00000
      4     -14.1215      2.00000
      5     -12.6872      2.00000
      6     -12.6872      2.00000
      7     -11.6644      2.00000
      8     -11.6642      2.00000
      9     -11.6641      2.00000
     10     -10.6594      2.00000
     11      -8.9415      2.00000
     12      -8.6828      2.00000
     13      -8.6826      2.00000
     14      -8.6825      2.00000
     15      -8.2927      2.00000
     16      -8.2926      2.00000
     17      -8.2924      2.00000
     18      -7.8519      2.00000
     19      -7.8515      2.00000
     20      -7.8512      2.00000
     21      -6.8024      2.00000
     22      -6.8023      2.00000
     23      -6.4301      2.00000
     24      -6.4299      2.00000
     25      -6.4297      2.00000
     26      -6.3676      2.00000
     27      -6.3673      2.00000
     28      -6.3671      2.00000
     29      -1.5714      0.00000
     30      -1.3354      0.00000
     31      -1.3352      0.00000
     32      -1.3351      0.00000
     33      -0.9819      0.00000
     34      -0.9818      0.00000
     35      -0.9817      0.00000
     36      -0.9173      0.00000
     37      -0.9168      0.00000
     38      -0.5698      0.00000
     39      -0.2766      0.00000
     40      -0.2159      0.00000
     41      -0.2159      0.00000
     42      -0.2153      0.00000


--------------------------------------------------------------------------------------------------------


 soft charge-density along one line, spin component           1
         0         1         2         3         4         5         6         7         8         9
 total charge-density along one line
 
 pseudopotential strength for first ion, spin component:           1
 19.621  27.382  -0.000   0.003   0.005  -0.001   0.005   0.009
 27.382  38.217  -0.000   0.004   0.007  -0.001   0.007   0.013
 -0.000  -0.000   4.362  -0.000   0.000   8.137  -0.000   0.000
  0.003   0.004  -0.000   4.362  -0.000  -0.000   8.137  -0.000
  0.005   0.007   0.000  -0.000   4.362   0.000  -0.000   8.137
 -0.001  -0.001   8.137  -0.000   0.000  15.188  -0.000   0.000
  0.005   0.007  -0.000   8.137  -0.000  -0.000  15.189  -0.000
  0.009   0.013   0.000  -0.000   8.137   0.000  -0.000  15.188
 total augmentation occupancy for first ion, spin component:           1
  6.038  -2.289   0.035  -0.317  -0.601  -0.011   0.099   0.188
 -2.289   0.918  -0.020   0.176   0.334   0.005  -0.043  -0.082
  0.035  -0.020   3.653   0.203  -0.081  -0.884  -0.065   0.026
 -0.317   0.176   0.203   2.823   0.217  -0.066  -0.615  -0.070
 -0.601   0.334  -0.081   0.217   3.094   0.026  -0.070  -0.702
 -0.011   0.005  -0.884  -0.066   0.026   0.215   0.018  -0.007
  0.099  -0.043  -0.065  -0.615  -0.070   0.018   0.141   0.020
  0.188  -0.082   0.026  -0.070  -0.702  -0.007   0.020   0.165


------------------------ aborting loop because EDIFF is reached ----------------------------------------


    CHARGE:  cpu time    0.4899: real time    0.4892
    FORLOC:  cpu time    0.1740: real time    0.1740
    FORNL :  cpu time    1.0808: real time    1.0810
    STRESS:  cpu time    7.8668: real time    7.8639
    FORCOR:  cpu time    1.7097: real time    1.7096
    FORHAR:  cpu time    0.5799: real time    0.5800
    MIXING:  cpu time    0.0520: real time    0.0517
    OFIELD:  cpu time    0.0000: real time    0.0000

  FORCE on cell =-STRESS in cart. coord.  units (eV):
  Direction    XX          YY          ZZ          XY          YZ          ZX
  --------------------------------------------------------------------------------------
  Alpha Z     1.96424     1.96424     1.96424
  Ewald     877.02953   877.10428   877.11216    -0.25956     0.02987    -0.52621
  Hartree  1188.49978  1188.53467  1188.58094    -0.24080     0.02905    -0.51554
  E(xc)    -178.19781  -178.19833  -178.19798     0.00010    -0.00008    -0.00007
  Local   -2569.61542 -2569.72330 -2569.77881     0.49920    -0.05896     1.04266
  n-local   272.89573   272.90387   272.89702    -0.00223     0.00060     0.00043
  augment   -27.60412   -27.60524   -27.60394     0.00005     0.00012    -0.00012
  Kinetic   434.13819   434.12885   434.13072     0.00400     0.00155     0.00072
  Fock        0.00000     0.00000     0.00000     0.00000     0.00000     0.00000
  -------------------------------------------------------------------------------------
  Total      -0.88987    -0.89095    -0.89565     0.00075     0.00215     0.00188
  in kB      -0.17822    -0.17843    -0.17937     0.00015     0.00043     0.00038
  external pressure =       -0.18 kB  Pullay stress =        0.00 kB


 VOLUME and BASIS-vectors are now :
 -----------------------------------------------------------------------------
  energy-cutoff  :      400.00
  volume of cell :     8000.00
      direct lattice vectors                 reciprocal lattice vectors
    20.000000000  0.000000000  0.000000000     0.050000000  0.000000000  0.000000000
     0.000000000 20.000000000  0.000000000     0.000000000  0.050000000  0.000000000
     0.000000000  0.000000000 20.000000000     0.000000000  0.000000000  0.050000000

  length of vectors
    20.000000000 20.000000000 20.000000000     0.050000000  0.050000000  0.050000000


 FORCES acting on ions
    electron-ion (+dipol)            ewald-force                    non-local-force                 convergence-correction
 -----------------------------------------------------------------------------------------------
   0.855E+02 -.502E+01 0.452E+02   -.878E+02 0.515E+01 -.464E+02   0.227E+01 -.133E+00 0.120E+01   0.241E-02 -.348E-03 0.123E-02
   -.357E+02 0.524E+02 0.734E+02   0.366E+02 -.538E+02 -.753E+02   -.944E+00 0.139E+01 0.195E+01   -.645E-03 0.166E-02 0.207E-02
   -.282E+02 -.813E+02 0.445E+02   0.289E+02 0.835E+02 -.457E+02   -.743E+00 -.216E+01 0.118E+01   -.261E-03 -.253E-02 0.117E-02
   -.854E+02 0.502E+01 -.452E+02   0.877E+02 -.515E+01 0.464E+02   -.227E+01 0.134E+00 -.120E+01   -.239E-02 0.156E-03 -.140E-02
   0.282E+02 0.813E+02 -.444E+02   -.290E+02 -.835E+02 0.456E+02   0.747E+00 0.216E+01 -.117E+01   0.100E-02 0.246E-02 -.805E-03
   0.357E+02 -.524E+02 -.733E+02   -.367E+02 0.538E+02 0.753E+02   0.948E+00 -.139E+01 -.194E+01   0.128E-02 -.183E-02 -.174E-02
   0.122E+02 -.190E+02 0.906E+02   -.123E+02 0.191E+02 -.910E+02   0.534E-01 -.828E-01 0.395E+00   0.373E-03 -.376E-03 0.145E-02
   0.831E+02 0.135E+02 -.405E+02   -.835E+02 -.135E+02 0.407E+02   0.363E+00 0.581E-01 -.176E+00   0.142E-02 0.120E-03 -.544E-03
   -.519E+02 0.772E+02 -.896E+01   0.521E+02 -.775E+02 0.900E+01   -.225E+00 0.336E+00 -.385E-01   -.691E-03 0.131E-02 -.919E-04
   -.436E+02 -.717E+02 -.413E+02   0.437E+02 0.720E+02 0.415E+02   -.190E+00 -.313E+00 -.180E+00   -.508E-03 -.127E-02 -.650E-03
   0.211E+02 0.412E+02 0.643E+01   -.225E+02 -.435E+02 -.771E+01   0.138E+01 0.230E+01 0.128E+01   0.151E-03 0.404E-03 -.134E-03
   0.100E+01 0.223E+02 -.411E+02   -.635E+00 -.230E+02 0.440E+02   -.368E+00 0.639E+00 -.288E+01   0.149E-03 0.421E-03 -.212E-03
   -.260E+02 0.386E+02 -.450E+01   0.274E+02 -.406E+02 0.473E+01   -.136E+01 0.203E+01 -.235E+00   -.219E-03 0.377E-03 -.327E-04
   -.460E+02 -.390E+01 0.597E+01   0.487E+02 0.432E+01 -.722E+01   -.266E+01 -.420E+00 0.125E+01   -.446E-03 0.255E-04 -.231E-03
   -.207E+02 0.782E+01 -.413E+02   0.211E+02 -.842E+01 0.441E+02   -.427E+00 0.601E+00 -.288E+01   -.422E-03 0.248E-04 -.236E-03
   -.368E+02 0.514E+01 0.285E+02   0.394E+02 -.475E+01 -.298E+02   -.264E+01 -.396E+00 0.131E+01   -.171E-03 0.267E-03 0.374E-03
   0.889E+01 0.358E+02 0.288E+02   -.102E+02 -.381E+02 -.302E+02   0.135E+01 0.228E+01 0.134E+01   -.967E-04 0.298E-03 0.338E-03
   0.612E+01 -.956E+01 0.452E+02   -.644E+01 0.101E+02 -.476E+02   0.320E+00 -.500E+00 0.238E+01   0.817E-04 -.936E-04 0.377E-03
   -.218E+02 -.358E+02 -.207E+02   0.230E+02 0.377E+02 0.218E+02   -.114E+01 -.188E+01 -.109E+01   -.166E-03 -.349E-03 -.187E-03
   0.243E+01 -.314E+01 -.465E+02   -.207E+01 0.257E+01 0.494E+02   -.365E+00 0.571E+00 -.289E+01   0.197E-03 -.289E-03 -.338E-03
   0.255E+02 -.378E+02 -.108E+02   -.272E+02 0.402E+02 0.105E+02   0.165E+01 -.246E+01 0.245E+00   0.192E-03 -.285E-03 -.275E-03
   0.415E+02 0.676E+01 -.203E+02   -.437E+02 -.711E+01 0.214E+02   0.219E+01 0.353E+00 -.106E+01   0.364E-03 0.391E-04 -.152E-03
   0.319E+02 0.249E+02 0.235E+02   -.333E+02 -.272E+02 -.248E+02   0.141E+01 0.225E+01 0.132E+01   0.398E-03 0.914E-05 0.219E-03
   0.349E+02 -.288E+02 0.119E+02   -.365E+02 0.313E+02 -.122E+02   0.168E+01 -.243E+01 0.305E+00   0.381E-03 -.890E-04 0.188E-03
   0.133E+02 -.432E+02 0.117E+02   -.150E+02 0.456E+02 -.120E+02   0.162E+01 -.247E+01 0.305E+00   -.407E-04 -.405E-03 0.180E-03
   -.354E+02 -.203E+02 0.231E+02   0.380E+02 0.208E+02 -.244E+02   -.263E+01 -.465E+00 0.130E+01   -.113E-03 -.427E-03 0.226E-03
 -----------------------------------------------------------------------------------------------
   -.129E-01 0.284E-02 -.101E-01   -.284E-13 -.639E-13 -.213E-13   0.859E-02 -.308E-02 0.102E-01   0.223E-02 -.722E-03 0.785E-03
 
 
 POSITION                                       TOTAL-FORCE (eV/Angst)
 -----------------------------------------------------------------------------------
      7.36989     10.78198      8.72208         0.000904     -0.000918      0.000106
     10.84062      9.14177      7.91287         0.001442      0.001522      0.000364
     10.62607     12.96990      8.74395         0.002078     -0.001934     -0.000722
     12.27148     10.49571     11.30545        -0.000363      0.000276     -0.000730
      9.01537      8.30756     11.28358         0.001179      0.001476      0.002208
      8.80078     12.13583     12.11483         0.001103     -0.002389      0.001231
      9.50790     11.12752      7.68183         0.001579     -0.002380      0.011972
      7.68216     10.29315     11.05365         0.011334      0.001993     -0.005027
     11.15393      8.65246     10.24419        -0.006917      0.010352     -0.000739
     10.93922     12.48189     11.07553        -0.006428     -0.009559     -0.005318
      8.31805      7.15009     10.63828        -0.002980     -0.007183      0.001162
      9.20177      7.98636     12.73449        -0.002151     -0.005482      0.002243
     12.02107      7.36068     10.39410        -0.005867      0.009298     -0.000841
     13.61263     10.70790     10.67373         0.006220     -0.000194      0.002807
     12.48491     10.19281     12.75642         0.005633     -0.000393      0.004250
     12.16994      9.34308      7.25316         0.002577     -0.003084     -0.004769
     10.15848      7.99109      7.23976         0.001283     -0.005510     -0.005794
      9.30451     11.44538      6.16501         0.001642     -0.002506      0.010933
     11.66663     13.68064     11.76604        -0.005019     -0.008285     -0.004807
      8.98540     11.84620     13.57259        -0.002468      0.003269      0.003926
      7.96896     13.37472     11.98984        -0.003850      0.005334      0.004705
      6.29117     10.06840     11.73014         0.010028      0.001550     -0.004934
      6.65892      9.64474      8.05576        -0.006181     -0.000162     -0.003370
      6.52640     12.00987      8.56905        -0.006354      0.002125     -0.002929
      9.80946     14.21572      8.59091         0.000048      0.007543     -0.003246
     11.95371     13.20256      8.09108         0.001527      0.005238     -0.002681
 -----------------------------------------------------------------------------------
    total drift:                               -0.002051     -0.000965      0.000946


--------------------------------------------------------------------------------------------------------



  FREE ENERGIE OF THE ION-ELECTRON SYSTEM (eV)
  ---------------------------------------------------
  free  energy   TOTEN  =      -102.70222563 eV

  energy  without entropy=     -102.70222563  energy(sigma->0) =     -102.70222563
 
 d Force = 0.8307366E-03[-0.193E-04, 0.168E-02]  d Energy = 0.8434495E-03-0.127E-04
 d Force =-0.2404946E+01[-0.241E+01,-0.240E+01]  d Ewald  =-0.2404946E+01 0.207E-06


--------------------------------------------------------------------------------------------------------


    POTLOK:  cpu time    1.7587: real time    1.7584


--------------------------------------------------------------------------------------------------------




--------------------------------------------------------------------------------------------------------


  
 reached required accuracy - stopping structural energy minimisation
 writing wavefunctions
     LOOP+:  cpu time   75.3455: real time   76.0039
    4ORBIT:  cpu time    0.0000: real time    0.0000

 total amount of memory used by VASP MPI-rank0   131440. kBytes
=======================================================================

   base      :      30000. kBytes
   nonl-proj :      17624. kBytes
   fftplans  :      26957. kBytes
   grid      :      48673. kBytes
   one-center:         40. kBytes
   wavefun   :       8146. kBytes
 
  
  
 General timing and accounting informations for this job:
 ========================================================
  
                  Total CPU time used (sec):     2060.112
                            User time (sec):     2033.903
                          System time (sec):       26.209
                         Elapsed time (sec):     2065.903
  
                   Maximum memory used (kb):      186316.
                   Average memory used (kb):           0.
  
                          Minor page faults:      5053717
                          Major page faults:            7
                 Voluntary context switches:         4717
