 vasp.5.4.4.18Apr17-6-g9f103f2a35 (build Nov 06 2017 19:16:10) complex          
  
 executed on           IFC91_ompi date 2018.07.09  08:15:22
 running on   12 total cores
 distrk:  each k-point on   12 cores,    1 groups
 distr:  one band on NCORES_PER_BAND=   6 cores,    2 groups


--------------------------------------------------------------------------------------------------------


 INCAR:
 POTCAR:    PAW_PBE Si 05Jan2001                  
 POTCAR:    PAW_PBE Ge 05Jan2001                  
 POTCAR:    PAW_PBE H 15Jun2001                   
 POTCAR:    PAW_PBE Si 05Jan2001                  
   VRHFIN =Si: s2p2                                                             
   LEXCH  = PE                                                                  
   EATOM  =   103.0669 eV,    7.5752 Ry                                         
                                                                                
   TITEL  = PAW_PBE Si 05Jan2001                                                
   LULTRA =        F    use ultrasoft PP ?                                      
   IUNSCR =        1    unscreen: 0-lin 1-nonlin 2-no                           
   RPACOR =    1.500    partial core radius                                     
   POMASS =   28.085; ZVAL   =    4.000    mass and valenz                      
   RCORE  =    1.900    outmost cutoff radius                                   
   RWIGS  =    2.480; RWIGS  =    1.312    wigner-seitz radius (au A)           
   ENMAX  =  245.345; ENMIN  =  184.009 eV                                      
   ICORE  =        2    local potential                                         
   LCOR   =        T    correct aug charges                                     
   LPAW   =        T    paw PP                                                  
   EAUG   =  322.069                                                            
   DEXC   =    0.000                                                            
   RMAX   =    1.950    core radius for proj-oper                               
   RAUG   =    1.300    factor for augmentation sphere                          
   RDEP   =    1.993    radius for radial grids                                 
   RDEPT  =    1.837    core radius for aug-charge                              
                                                                                
   Atomic configuration                                                         
    6 entries                                                                   
     n  l   j            E        occ.                                          
     1  0  0.50     -1785.8828   2.0000                                         
     2  0  0.50      -139.4969   2.0000                                         
     2  1  1.50       -95.5546   6.0000                                         
     3  0  0.50       -10.8127   2.0000                                         
     3  1  0.50        -4.0811   2.0000                                         
     3  2  1.50        -4.0817   0.0000                                         
   Description                                                                  
     l       E           TYP  RCUT    TYP  RCUT                                 
     0    -10.8127223     23  1.900                                             
     0     -7.6451159     23  1.900                                             
     1     -4.0811372     23  1.900                                             
     1      2.4879257     23  1.900                                             
     2     -4.0817478      7  1.900                                             
  local pseudopotential read in
  partial core-charges read in
  partial kinetic energy density read in
  atomic valenz-charges read in
  non local Contribution for L=           0  read in
    real space projection operators read in
  non local Contribution for L=           0  read in
    real space projection operators read in
  non local Contribution for L=           1  read in
    real space projection operators read in
  non local Contribution for L=           1  read in
    real space projection operators read in
    PAW grid and wavefunctions read in
 
   number of l-projection  operators is LMAX  =           4
   number of lm-projection operators is LMMAX =           8
 
 POTCAR:    PAW_PBE Ge 05Jan2001                  
   VRHFIN =Ge: s2p2                                                             
   LEXCH  = PE                                                                  
   EATOM  =   104.9960 eV,    7.7170 Ry                                         
                                                                                
   TITEL  = PAW_PBE Ge 05Jan2001                                                
   LULTRA =        F    use ultrasoft PP ?                                      
   IUNSCR =        1    unscreen: 0-lin 1-nonlin 2-no                           
   RPACOR =    2.170    partial core radius                                     
   POMASS =   72.610; ZVAL   =    4.000    mass and valenz                      
   RCORE  =    2.300    outmost cutoff radius                                   
   RWIGS  =    2.300; RWIGS  =    1.217    wigner-seitz radius (au A)           
   ENMAX  =  173.807; ENMIN  =  130.355 eV                                      
   ICORE  =        3    local potential                                         
   LCOR   =        T    correct aug charges                                     
   LPAW   =        T    paw PP                                                  
   EAUG   =  385.843                                                            
   DEXC   =    0.000                                                            
   RMAX   =    2.342    core radius for proj-oper                               
   RAUG   =    1.300    factor for augmentation sphere                          
   RDEP   =    2.318    radius for radial grids                                 
   RDEPT  =    2.103    core radius for aug-charge                              
                                                                                
   Atomic configuration                                                         
   10 entries                                                                   
     n  l   j            E        occ.                                          
     1  0  0.50    -10959.8463   2.0000                                         
     2  0  0.50     -1371.6056   2.0000                                         
     2  1  1.50     -1198.4791   6.0000                                         
     3  0  0.50      -168.4733   2.0000                                         
     3  1  1.50      -115.6019   6.0000                                         
     3  2  2.50       -29.3106  10.0000                                         
     4  0  0.50       -11.7309   2.0000                                         
     4  1  0.50        -3.8952   2.0000                                         
     4  2  1.50        -4.0817   0.0000                                         
     4  3  2.50        -4.0817   0.0000                                         
   Description                                                                  
     l       E           TYP  RCUT    TYP  RCUT                                 
     0    -11.7309493     23  2.300                                             
     0     -7.4578696     23  2.300                                             
     1     -3.8952261     23  2.300                                             
     1      6.1178114     23  2.300                                             
     2     -4.0817478     23  2.300                                             
     3     -1.3605826      7  2.300                                             
  local pseudopotential read in
  partial core-charges read in
  partial kinetic energy density read in
  atomic valenz-charges read in
  non local Contribution for L=           0  read in
    real space projection operators read in
  non local Contribution for L=           0  read in
    real space projection operators read in
  non local Contribution for L=           1  read in
    real space projection operators read in
  non local Contribution for L=           1  read in
    real space projection operators read in
  non local Contribution for L=           2  read in
    real space projection operators read in
    PAW grid and wavefunctions read in
 
   number of l-projection  operators is LMAX  =           5
   number of lm-projection operators is LMMAX =          13
 
 POTCAR:    PAW_PBE H 15Jun2001                   
   VRHFIN =H: ultrasoft test                                                    
   LEXCH  = PE                                                                  
   EATOM  =    12.4884 eV,    0.9179 Ry                                         
                                                                                
   TITEL  = PAW_PBE H 15Jun2001                                                 
   LULTRA =        F    use ultrasoft PP ?                                      
   IUNSCR =        0    unscreen: 0-lin 1-nonlin 2-no                           
   RPACOR =    0.000    partial core radius                                     
   POMASS =    1.000; ZVAL   =    1.000    mass and valenz                      
   RCORE  =    1.100    outmost cutoff radius                                   
   RWIGS  =    0.700; RWIGS  =    0.370    wigner-seitz radius (au A)           
   ENMAX  =  250.000; ENMIN  =  200.000 eV                                      
   RCLOC  =    0.701    cutoff for local pot                                    
   LCOR   =        T    correct aug charges                                     
   LPAW   =        T    paw PP                                                  
   EAUG   =  400.000                                                            
   RMAX   =    1.123    core radius for proj-oper                               
   RAUG   =    1.200    factor for augmentation sphere                          
   RDEP   =    1.112    radius for radial grids                                 
   RDEPT  =    0.926    core radius for aug-charge                              
                                                                                
   Atomic configuration                                                         
    2 entries                                                                   
     n  l   j            E        occ.                                          
     1  0  0.50        -6.4927   1.0000                                         
     2  1  0.50        -3.4015   0.0000                                         
   Description                                                                  
     l       E           TYP  RCUT    TYP  RCUT                                 
     0     -6.4927494     23  1.100                                             
     0      6.8029130     23  1.100                                             
     1     -4.0817478     23  1.100                                             
  local pseudopotential read in
  atomic valenz-charges read in
  non local Contribution for L=           0  read in
    real space projection operators read in
  non local Contribution for L=           0  read in
    real space projection operators read in
  non local Contribution for L=           1  read in
    real space projection operators read in
    PAW grid and wavefunctions read in
 
   number of l-projection  operators is LMAX  =           3
   number of lm-projection operators is LMMAX =           5
 

 ----------------------------------------------------------------------------- 
|                                                                             |
|  ADVICE TO THIS USER RUNNING 'VASP/VAMP'   (HEAR YOUR MASTER'S VOICE ...):  |
|                                                                             |
|      You have a (more or less) 'large supercell' and for larger cells       |
|      it might be more efficient to use real space projection opertators     |
|      So try LREAL= Auto  in the INCAR   file.                               |
|      Mind:          For very  accurate calculation you might also keep the  |
|      reciprocal projection scheme          (i.e. LREAL=.FALSE.)             |
|                                                                             |
 ----------------------------------------------------------------------------- 

  PAW_PBE Si 05Jan2001                  :
 energy of atom  1       EATOM= -103.0669
 kinetic energy error for atom=    0.0012 (will be added to EATOM!!)
  PAW_PBE Ge 05Jan2001                  :
 energy of atom  2       EATOM= -104.9960
 kinetic energy error for atom=    0.0003 (will be added to EATOM!!)
  PAW_PBE H 15Jun2001                   :
 energy of atom  3       EATOM=  -12.4884
 kinetic energy error for atom=    0.0098 (will be added to EATOM!!)
 
 
 POSCAR: SiGeH16                                 
  positions in direct lattice
  No initial velocities read in
 exchange correlation table for  LEXCH =        8
   RHO(1)=    0.500       N(1)  =     2000
   RHO(2)=  100.500       N(2)  =     4000
 


--------------------------------------------------------------------------------------------------------


 ion  position               nearest neighbor table
   1  0.475  0.556  0.385-  18 1.55   4 2.39   2 2.39   3 2.39
   2  0.369  0.539  0.436-  23 1.55  24 1.55   7 2.39   1 2.39
   3  0.542  0.457  0.396-  17 1.55  16 1.55   8 2.39   1 2.39
   4  0.531  0.648  0.437-  25 1.55  26 1.55   9 2.39   1 2.39
   5  0.613  0.525  0.565-  15 1.55  14 1.55   9 2.39   8 2.39
   6  0.451  0.416  0.564-  12 1.55  11 1.55   7 2.39   8 2.39
   7  0.385  0.515  0.552-  22 1.55  10 2.39   6 2.39   2 2.39
   8  0.557  0.433  0.512-  13 1.55   3 2.39   5 2.39   6 2.39
   9  0.547  0.624  0.554-  19 1.55   4 2.39   5 2.39  10 2.39
  10  0.440  0.606  0.605-  20 1.55  21 1.55   7 2.39   9 2.39
  11  0.415  0.357  0.529-   6 1.55
  12  0.461  0.400  0.639-   6 1.55
  13  0.600  0.369  0.520-   8 1.55
  14  0.682  0.536  0.531-   5 1.55
  15  0.623  0.509  0.640-   5 1.55
  16  0.611  0.469  0.363-   3 1.55
  17  0.506  0.398  0.362-   3 1.55
  18  0.465  0.572  0.309-   1 1.55
  19  0.583  0.683  0.588-   9 1.55
  20  0.451  0.590  0.680-  10 1.55
  21  0.397  0.670  0.598-  10 1.55
  22  0.316  0.504  0.586-   7 1.55
  23  0.333  0.479  0.402-   2 1.55
  24  0.326  0.603  0.429-   2 1.55
  25  0.488  0.712  0.430-   4 1.55
  26  0.600  0.659  0.404-   4 1.55
 
  LATTYP: Found a simple cubic cell.
 ALAT       =    20.0000000000
  
  Lattice vectors:
  
 A1 = (  20.0000000000,   0.0000000000,   0.0000000000)
 A2 = (   0.0000000000,  20.0000000000,   0.0000000000)
 A3 = (   0.0000000000,   0.0000000000,  20.0000000000)


Analysis of symmetry for initial positions (statically):
=====================================================================
 Subroutine PRICEL returns:
 Original cell was already a primitive cell.
 

 Routine SETGRP: Setting up the symmetry group for a 
 simple cubic supercell.


 Subroutine GETGRP returns: Found  1 space group operations
 (whereof  1 operations were pure point group operations)
 out of a pool of 48 trial point group operations.


The static configuration has the point symmetry C_1 .


Analysis of symmetry for dynamics (positions and initial velocities):
=====================================================================
 Subroutine PRICEL returns:
 Original cell was already a primitive cell.
 

 Routine SETGRP: Setting up the symmetry group for a 
 simple cubic supercell.


 Subroutine GETGRP returns: Found  1 space group operations
 (whereof  1 operations were pure point group operations)
 out of a pool of 48 trial point group operations.


The dynamic configuration has the point symmetry C_1 .


 Subroutine INISYM returns: Found  1 space group operations
 (whereof  1 operations are pure point group operations),
 and found     1 'primitive' translations

 
 
 KPOINTS: Automatic mesh                          

Automatic generation of k-mesh.
Space group operators:
 irot       det(A)        alpha          n_x          n_y          n_z        tau_x        tau_y        tau_z
    1     1.000000     0.000000     1.000000     0.000000     0.000000     0.000000     0.000000     0.000000
 
 Subroutine IBZKPT returns following result:
 ===========================================
 
 Found      1 irreducible k-points:
 
 Following reciprocal coordinates:
            Coordinates               Weight
  0.000000  0.000000  0.000000      1.000000
 
 Following cartesian coordinates:
            Coordinates               Weight
  0.000000  0.000000  0.000000      1.000000
 


--------------------------------------------------------------------------------------------------------




 Dimension of arrays:
   k-points           NKPTS =      1   k-points in BZ     NKDIM =      1   number of bands    NBANDS=     42
   number of dos      NEDOS =    301   number of ions     NIONS =     26
   non local maximal  LDIM  =      5   non local SUM 2l+1 LMDIM =     13
   total plane-waves  NPLWV = 941192
   max r-space proj   IRMAX =      1   max aug-charges    IRDMAX=   6593
   dimension x,y,z NGX =    98 NGY =   98 NGZ =   98
   dimension x,y,z NGXF=   196 NGYF=  196 NGZF=  196
   support grid    NGXF=   196 NGYF=  196 NGZF=  196
   ions per type =               6   4  16
   NGX,Y,Z   is equivalent  to a cutoff of   8.15,  8.15,  8.15 a.u.
   NGXF,Y,Z  is equivalent  to a cutoff of  16.29, 16.29, 16.29 a.u.

 SYSTEM =  SiGe                                    
 POSCAR =  SiGeH16                                 

 Startparameter for this run:
   NWRITE =      2    write-flag & timer
   PREC   = normal    normal or accurate (medium, high low for compatibility)
   ISTART =      0    job   : 0-new  1-cont  2-samecut
   ICHARG =      2    charge: 1-file 2-atom 10-const
   ISPIN  =      1    spin polarized calculation?
   LNONCOLLINEAR =      F non collinear calculations
   LSORBIT =      F    spin-orbit coupling
   INIWAV =      1    electr: 0-lowe 1-rand  2-diag
   LASPH  =      F    aspherical Exc in radial PAW
   METAGGA=      F    non-selfconsistent MetaGGA calc.

 Electronic Relaxation 1
   ENCUT  =  400.0 eV  29.40 Ry    5.42 a.u.  32.61 32.61 32.61*2*pi/ulx,y,z
   ENINI  =  400.0     initial cutoff
   ENAUG  =  400.0 eV  augmentation charge cutoff
   NELM   =     60;   NELMIN=  2; NELMDL= -5     # of ELM steps 
   EDIFF  = 0.1E-05   stopping-criterion for ELM
   LREAL  =      F    real-space projection
   NLSPLINE    = F    spline interpolate recip. space projectors
   LCOMPAT=      F    compatible to vasp.4.4
   GGA_COMPAT  = T    GGA compatible to vasp.4.4-vasp.4.6
   LMAXPAW     = -100 max onsite density
   LMAXMIX     =    2 max onsite mixed and CHGCAR
   VOSKOWN=      0    Vosko Wilk Nusair interpolation
   ROPT   =    0.00000   0.00000   0.00000
 Ionic relaxation
   EDIFFG = -.2E-01   stopping-criterion for IOM
   NSW    =    200    number of steps for IOM
   NBLOCK =      1;   KBLOCK =    200    inner block; outer block 
   IBRION =      2    ionic relax: 0-MD 1-quasi-New 2-CG
   NFREE  =      1    steps in history (QN), initial steepest desc. (CG)
   ISIF   =      2    stress and relaxation
   IWAVPR =     11    prediction:  0-non 1-charg 2-wave 3-comb
   ISYM   =      2    0-nonsym 1-usesym 2-fastsym
   LCORR  =      T    Harris-Foulkes like correction to forces

   POTIM  = 0.5000    time-step for ionic-motion
   TEIN   =    0.0    initial temperature
   TEBEG  =    0.0;   TEEND  =   0.0 temperature during run
   SMASS  =  -3.00    Nose mass-parameter (am)
   estimated Nose-frequenzy (Omega)   =  0.10E-29 period in steps =****** mass=  -0.914E-26a.u.
   SCALEE = 1.0000    scale energy and forces
   NPACO  =    256;   APACO  = 16.0  distance and # of slots for P.C.
   PSTRESS=    0.0 pullay stress

  Mass of Ions in am
   POMASS =  28.09 72.61  1.00
  Ionic Valenz
   ZVAL   =   4.00  4.00  1.00
  Atomic Wigner-Seitz radii
   RWIGS  =  -1.00 -1.00 -1.00
  virtual crystal weights 
   VCA    =   1.00  1.00  1.00
   NELECT =      56.0000    total number of electrons
   NUPDOWN=      -1.0000    fix difference up-down

 DOS related values:
   EMIN   =  10.00;   EMAX   =-10.00  energy-range for DOS
   EFERMI =   0.00
   ISMEAR =     0;   SIGMA  =   0.20  broadening in eV -4-tet -1-fermi 0-gaus

 Electronic relaxation 2 (details)
   IALGO  =     38    algorithm
   LDIAG  =      T    sub-space diagonalisation (order eigenvalues)
   LSUBROT=      F    optimize rotation matrix (better conditioning)
   TURBO    =      0    0=normal 1=particle mesh
   IRESTART =      0    0=no restart 2=restart with 2 vectors
   NREBOOT  =      0    no. of reboots
   NMIN     =      0    reboot dimension
   EREF     =   0.00    reference energy to select bands
   IMIX   =      4    mixing-type and parameters
     AMIX     =   0.40;   BMIX     =  1.00
     AMIX_MAG =   1.60;   BMIX_MAG =  1.00
     AMIN     =   0.10
     WC   =   100.;   INIMIX=   1;  MIXPRE=   1;  MAXMIX= -45

 Intra band minimization:
   WEIMIN = 0.0010     energy-eigenvalue tresh-hold
   EBREAK =  0.60E-08  absolut break condition
   DEPER  =   0.30     relativ break condition  

   TIME   =   0.40     timestep for ELM

  volume/ion in A,a.u.               =     307.69      2076.41
  Fermi-wavevector in a.u.,A,eV,Ry     =   0.313166  0.591797  1.334361  0.098073
  Thomas-Fermi vector in A             =   1.193276
 
 Write flags
   LWAVE        =      T    write WAVECAR
   LDOWNSAMPLE  =      F    k-point downsampling of WAVECAR
   LCHARG       =      T    write CHGCAR
   LVTOT        =      F    write LOCPOT, total local potential
   LVHAR        =      F    write LOCPOT, Hartree potential only
   LELF         =      F    write electronic localiz. function (ELF)
   LORBIT       =      0    0 simple, 1 ext, 2 COOP (PROOUT), +10 PAW based schemes


 Dipole corrections
   LMONO  =      F    monopole corrections only (constant potential shift)
   LDIPOL =      F    correct potential (dipole corrections)
   IDIPOL =      0    1-x, 2-y, 3-z, 4-all directions 
   EPSILON=  1.0000000 bulk dielectric constant

 Exchange correlation treatment:
   GGA     =    --    GGA type
   LEXCH   =     8    internal setting for exchange type
   VOSKOWN=      0    Vosko Wilk Nusair interpolation
   LHFCALC =     F    Hartree Fock is set to
   LHFONE  =     F    Hartree Fock one center treatment
   AEXX    =    0.0000 exact exchange contribution

 Linear response parameters
   LEPSILON=     F    determine dielectric tensor
   LRPA    =     F    only Hartree local field effects (RPA)
   LNABLA  =     F    use nabla operator in PAW spheres
   LVEL    =     F    velocity operator in full k-point grid
   LINTERFAST=   F  fast interpolation
   KINTER  =     0    interpolate to denser k-point grid
   CSHIFT  =0.1000    complex shift for real part using Kramers Kronig
   OMEGAMAX=  -1.0    maximum frequency
   DEG_THRESHOLD= 0.2000000E-02 threshold for treating states as degnerate
   RTIME   =   -0.100 relaxation time in fs
  (WPLASMAI=    0.000 imaginary part of plasma frequency in eV, 0.658/RTIME)
   DFIELD  = 0.0000000 0.0000000 0.0000000 field for delta impulse in time
 
 Orbital magnetization related:
   ORBITALMAG=     F  switch on orbital magnetization
   LCHIMAG   =     F  perturbation theory with respect to B field
   DQ        =  0.001000  dq finite difference perturbation B field
   LLRAUG    =     F  two centre corrections for induced B field



--------------------------------------------------------------------------------------------------------


 conjugate gradient relaxation of ions
 charge density and potential will be updated during run
 non-spin polarized calculation
 Variant of blocked Davidson
 Davidson routine will perform the subspace rotation
 perform sub-space diagonalisation
    after iterative eigenvector-optimisation
 modified Broyden-mixing scheme, WC =      100.0
 initial mixing is a Kerker type mixing with AMIX =  0.4000 and BMIX =      1.0000
 Hartree-type preconditioning will be used
 using additional bands           14
 reciprocal scheme for non local part
 use partial core corrections
 calculate Harris-corrections to forces 
   (improved forces if not selfconsistent)
 use gradient corrections 
 use of overlap-Matrix (Vanderbilt PP)
 Gauss-broadening in eV      SIGMA  =   0.20


--------------------------------------------------------------------------------------------------------


  energy-cutoff  :      400.00
  volume of cell :     8000.00
      direct lattice vectors                 reciprocal lattice vectors
    20.000000000  0.000000000  0.000000000     0.050000000  0.000000000  0.000000000
     0.000000000 20.000000000  0.000000000     0.000000000  0.050000000  0.000000000
     0.000000000  0.000000000 20.000000000     0.000000000  0.000000000  0.050000000

  length of vectors
    20.000000000 20.000000000 20.000000000     0.050000000  0.050000000  0.050000000


 
 k-points in units of 2pi/SCALE and weight: Automatic mesh                          
   0.00000000  0.00000000  0.00000000       1.000
 
 k-points in reciprocal lattice and weights: Automatic mesh                          
   0.00000000  0.00000000  0.00000000       1.000
 
 position of ions in fractional coordinates (direct lattice) 
   0.47547100  0.55626000  0.38465300
   0.36907800  0.53906000  0.43641200
   0.54179100  0.45744600  0.39613600
   0.53111600  0.64794100  0.43749600
   0.61299700  0.52481700  0.56496600
   0.45095700  0.41593600  0.56388300
   0.38461900  0.51474100  0.55243500
   0.55736800  0.43311000  0.51215000
   0.54669200  0.62364400  0.55351800
   0.44028400  0.60643000  0.60524300
   0.41490100  0.35665000  0.52940300
   0.46117000  0.40042600  0.63910800
   0.60034800  0.36907000  0.51957800
   0.68182700  0.53600700  0.53118700
   0.62280400  0.50903400  0.64018900
   0.61080000  0.46880600  0.36278200
   0.50550800  0.39805500  0.36207700
   0.46538400  0.57201900  0.30946400
   0.58275500  0.68306700  0.58775000
   0.45052500  0.59044300  0.68036400
   0.39732000  0.67044900  0.59753500
   0.31566200  0.50359800  0.58596500
   0.33322800  0.47946500  0.40225200
   0.32629100  0.60324700  0.42912600
   0.48792300  0.71185500  0.43020800
   0.60015100  0.65882400  0.40403700
 
 position of ions in cartesian coordinates  (Angst):
   9.50942000 11.12520000  7.69306000
   7.38156000 10.78120000  8.72824000
  10.83582000  9.14892000  7.92272000
  10.62232000 12.95882000  8.74992000
  12.25994000 10.49634000 11.29932000
   9.01914000  8.31872000 11.27766000
   7.69238000 10.29482000 11.04870000
  11.14736000  8.66220000 10.24300000
  10.93384000 12.47288000 11.07036000
   8.80568000 12.12860000 12.10486000
   8.29802000  7.13300000 10.58806000
   9.22340000  8.00852000 12.78216000
  12.00696000  7.38140000 10.39156000
  13.63654000 10.72014000 10.62374000
  12.45608000 10.18068000 12.80378000
  12.21600000  9.37612000  7.25564000
  10.11016000  7.96110000  7.24154000
   9.30768000 11.44038000  6.18928000
  11.65510000 13.66134000 11.75500000
   9.01050000 11.80886000 13.60728000
   7.94640000 13.40898000 11.95070000
   6.31324000 10.07196000 11.71930000
   6.66456000  9.58930000  8.04504000
   6.52582000 12.06494000  8.58252000
   9.75846000 14.23710000  8.60416000
  12.00302000 13.17648000  8.08074000
 


--------------------------------------------------------------------------------------------------------


 k-point  1 :   0.0000 0.0000 0.0000  plane waves:  145165

 maximum and minimum number of plane-waves per node :     24209    24180

 maximum number of plane-waves:    145165
 maximum index in each direction: 
   IXMAX=   32   IYMAX=   32   IZMAX=   32
   IXMIN=  -32   IYMIN=  -32   IZMIN=  -32


 parallel 3D FFT for wavefunctions:
    minimum data exchange during FFTs selected (reduces bandwidth)
 parallel 3D FFT for charge:
    minimum data exchange during FFTs selected (reduces bandwidth)


 total amount of memory used by VASP MPI-rank0   131440. kBytes
=======================================================================

   base      :      30000. kBytes
   nonl-proj :      17624. kBytes
   fftplans  :      26957. kBytes
   grid      :      48673. kBytes
   one-center:         40. kBytes
   wavefun   :       8146. kBytes
 
     INWAV:  cpu time    0.0000: real time    0.0000
 Broyden mixing: mesh for mixing (old mesh)
   NGX = 65   NGY = 65   NGZ = 65
  (NGX  =196   NGY  =196   NGZ  =196)
  gives a total of 274625 points

 initial charge density was supplied:
 charge density of overlapping atoms calculated
 number of electron      56.0000000 magnetization 
 keeping initial charge density in first step


--------------------------------------------------------------------------------------------------------


 Maximum index for augmentation-charges          545 (set IRDMAX)


--------------------------------------------------------------------------------------------------------


 First call to EWALD:  gamma=   0.089
 Maximum number of real-space cells 3x 3x 3
 Maximum number of reciprocal cells 3x 3x 3

    FEWALD:  cpu time    0.0040: real time    0.0034


--------------------------------------- Iteration      1(   1)  ---------------------------------------


    POTLOK:  cpu time    1.7417: real time    1.7625
    SETDIJ:  cpu time    0.0070: real time    0.0074
     EDDAV:  cpu time   10.6804: real time   10.7045
       DOS:  cpu time    0.0010: real time    0.0004
    --------------------------------------------
      LOOP:  cpu time   12.4301: real time   12.4747

 eigenvalue-minimisations  :   116
 total energy-change (2. order) : 0.2016745E+03  (-0.1048614E+04)
 number of electron      56.0000000 magnetization 
 augmentation part       56.0000000 magnetization 

 Free energy of the ion-electron system (eV)
  ---------------------------------------------------
  alpha Z        PSCENC =         1.96423985
  Ewald energy   TEWEN  =      2629.98113996
  -Hartree energ DENC   =     -3442.34094082
  -exchange      EXHF   =         0.00000000
  -V(xc)+E(xc)   XCENC  =       -53.14764750
  PAW double counting   =       915.46801746     -752.10009045
  entropy T*S    EENTRO =        -0.43125979
  eigenvalues    EBANDS =      -335.75427080
  atomic energy  EATOM  =      1238.03527989
  Solvation  Ediel_sol  =         0.00000000
  ---------------------------------------------------
  free energy    TOTEN  =       201.67446780 eV

  energy without entropy =      202.10572759  energy(sigma->0) =      201.89009769


--------------------------------------------------------------------------------------------------------




--------------------------------------- Iteration      1(   2)  ---------------------------------------


     EDDAV:  cpu time   12.9140: real time   13.0477
       DOS:  cpu time    0.0000: real time    0.0002
    --------------------------------------------
      LOOP:  cpu time   12.9140: real time   13.0479

 eigenvalue-minimisations  :   144
 total energy-change (2. order) :-0.2314846E+03  (-0.2159314E+03)
 number of electron      56.0000000 magnetization 
 augmentation part       56.0000000 magnetization 

 Free energy of the ion-electron system (eV)
  ---------------------------------------------------
  alpha Z        PSCENC =         1.96423985
  Ewald energy   TEWEN  =      2629.98113996
  -Hartree energ DENC   =     -3442.34094082
  -exchange      EXHF   =         0.00000000
  -V(xc)+E(xc)   XCENC  =       -53.14764750
  PAW double counting   =       915.46801746     -752.10009045
  entropy T*S    EENTRO =        -0.00000000
  eigenvalues    EBANDS =      -567.67016818
  atomic energy  EATOM  =      1238.03527989
  Solvation  Ediel_sol  =         0.00000000
  ---------------------------------------------------
  free energy    TOTEN  =       -29.81016979 eV

  energy without entropy =      -29.81016979  energy(sigma->0) =      -29.81016979


--------------------------------------------------------------------------------------------------------




--------------------------------------- Iteration      1(   3)  ---------------------------------------


     EDDAV:  cpu time   10.5984: real time   10.5967
       DOS:  cpu time    0.0010: real time    0.0002
    --------------------------------------------
      LOOP:  cpu time   10.5994: real time   10.5969

 eigenvalue-minimisations  :   112
 total energy-change (2. order) :-0.7335404E+02  (-0.7318676E+02)
 number of electron      56.0000000 magnetization 
 augmentation part       56.0000000 magnetization 

 Free energy of the ion-electron system (eV)
  ---------------------------------------------------
  alpha Z        PSCENC =         1.96423985
  Ewald energy   TEWEN  =      2629.98113996
  -Hartree energ DENC   =     -3442.34094082
  -exchange      EXHF   =         0.00000000
  -V(xc)+E(xc)   XCENC  =       -53.14764750
  PAW double counting   =       915.46801746     -752.10009045
  entropy T*S    EENTRO =        -0.00000000
  eigenvalues    EBANDS =      -641.02420676
  atomic energy  EATOM  =      1238.03527989
  Solvation  Ediel_sol  =         0.00000000
  ---------------------------------------------------
  free energy    TOTEN  =      -103.16420837 eV

  energy without entropy =     -103.16420837  energy(sigma->0) =     -103.16420837


--------------------------------------------------------------------------------------------------------




--------------------------------------- Iteration      1(   4)  ---------------------------------------


     EDDAV:  cpu time    9.8575: real time    9.8546
       DOS:  cpu time    0.0010: real time    0.0002
    --------------------------------------------
      LOOP:  cpu time    9.8585: real time    9.8549

 eigenvalue-minimisations  :   104
 total energy-change (2. order) :-0.4089172E+01  (-0.4074504E+01)
 number of electron      56.0000000 magnetization 
 augmentation part       56.0000000 magnetization 

 Free energy of the ion-electron system (eV)
  ---------------------------------------------------
  alpha Z        PSCENC =         1.96423985
  Ewald energy   TEWEN  =      2629.98113996
  -Hartree energ DENC   =     -3442.34094082
  -exchange      EXHF   =         0.00000000
  -V(xc)+E(xc)   XCENC  =       -53.14764750
  PAW double counting   =       915.46801746     -752.10009045
  entropy T*S    EENTRO =        -0.00000000
  eigenvalues    EBANDS =      -645.11337914
  atomic energy  EATOM  =      1238.03527989
  Solvation  Ediel_sol  =         0.00000000
  ---------------------------------------------------
  free energy    TOTEN  =      -107.25338075 eV

  energy without entropy =     -107.25338075  energy(sigma->0) =     -107.25338075


--------------------------------------------------------------------------------------------------------




--------------------------------------- Iteration      1(   5)  ---------------------------------------


     EDDAV:  cpu time   12.1751: real time   12.1713
       DOS:  cpu time    0.0000: real time    0.0003
    CHARGE:  cpu time    0.4889: real time    0.4880
    MIXING:  cpu time    0.0420: real time    0.0417
    --------------------------------------------
      LOOP:  cpu time   12.7061: real time   12.7013

 eigenvalue-minimisations  :   136
 total energy-change (2. order) :-0.8057549E-01  (-0.8053115E-01)
 number of electron      56.0000024 magnetization 
 augmentation part       -3.5538589 magnetization 

 Broyden mixing:
  rms(total) = 0.15141E+01    rms(broyden)= 0.15140E+01
  rms(prec ) = 0.16107E+01
  weight for this iteration     100.00

 Free energy of the ion-electron system (eV)
  ---------------------------------------------------
  alpha Z        PSCENC =         1.96423985
  Ewald energy   TEWEN  =      2629.98113996
  -Hartree energ DENC   =     -3442.34094082
  -exchange      EXHF   =         0.00000000
  -V(xc)+E(xc)   XCENC  =       -53.14764750
  PAW double counting   =       915.46801746     -752.10009045
  entropy T*S    EENTRO =        -0.00000000
  eigenvalues    EBANDS =      -645.19395463
  atomic energy  EATOM  =      1238.03527989
  Solvation  Ediel_sol  =         0.00000000
  ---------------------------------------------------
  free energy    TOTEN  =      -107.33395624 eV

  energy without entropy =     -107.33395624  energy(sigma->0) =     -107.33395624


--------------------------------------------------------------------------------------------------------




--------------------------------------- Iteration      1(   6)  ---------------------------------------


    POTLOK:  cpu time    1.6957: real time    1.7077
    SETDIJ:  cpu time    0.0070: real time    0.0076
     EDDAV:  cpu time    9.7875: real time    9.7897
       DOS:  cpu time    0.0000: real time    0.0003
    CHARGE:  cpu time    0.4869: real time    0.4867
    MIXING:  cpu time    0.0440: real time    0.0446
    --------------------------------------------
      LOOP:  cpu time   12.0212: real time   12.0366

 eigenvalue-minimisations  :   104
 total energy-change (2. order) : 0.3256244E+01  (-0.1634541E+00)
 number of electron      56.0000023 magnetization 
 augmentation part       -3.5537160 magnetization 

 Broyden mixing:
  rms(total) = 0.87785E+00    rms(broyden)= 0.87785E+00
  rms(prec ) = 0.93672E+00
  weight for this iteration     100.00

 eigenvalues of (default mixing * dielectric matrix)
  average eigenvalue GAMMA=   2.3083
  2.3083

 Free energy of the ion-electron system (eV)
  ---------------------------------------------------
  alpha Z        PSCENC =         1.96423985
  Ewald energy   TEWEN  =      2629.98113996
  -Hartree energ DENC   =     -3473.77517326
  -exchange      EXHF   =         0.00000000
  -V(xc)+E(xc)   XCENC  =       -49.50744319
  PAW double counting   =      1847.21851160    -1684.60202870
  entropy T*S    EENTRO =        -0.00000000
  eigenvalues    EBANDS =      -613.39223846
  atomic energy  EATOM  =      1238.03527989
  Solvation  Ediel_sol  =         0.00000000
  ---------------------------------------------------
  free energy    TOTEN  =      -104.07771231 eV

  energy without entropy =     -104.07771231  energy(sigma->0) =     -104.07771231


--------------------------------------------------------------------------------------------------------




--------------------------------------- Iteration      1(   7)  ---------------------------------------


    POTLOK:  cpu time    1.6957: real time    1.6969
    SETDIJ:  cpu time    0.0080: real time    0.0077
     EDDAV:  cpu time   10.4284: real time   10.4318
       DOS:  cpu time    0.0000: real time    0.0003
    CHARGE:  cpu time    0.4939: real time    0.4934
    MIXING:  cpu time    0.0470: real time    0.0472
    --------------------------------------------
      LOOP:  cpu time   12.6731: real time   12.6774

 eigenvalue-minimisations  :   112
 total energy-change (2. order) : 0.1703507E+01  (-0.4184722E+00)
 number of electron      56.0000021 magnetization 
 augmentation part       -3.5491048 magnetization 

 Broyden mixing:
  rms(total) = 0.12202E+00    rms(broyden)= 0.12187E+00
  rms(prec ) = 0.15322E+00
  weight for this iteration     100.00

 eigenvalues of (default mixing * dielectric matrix)
  average eigenvalue GAMMA=   1.8257
  1.6530  1.9984

 Free energy of the ion-electron system (eV)
  ---------------------------------------------------
  alpha Z        PSCENC =         1.96423985
  Ewald energy   TEWEN  =      2629.98113996
  -Hartree energ DENC   =     -3529.95983249
  -exchange      EXHF   =         0.00000000
  -V(xc)+E(xc)   XCENC  =       -43.71655429
  PAW double counting   =      3907.70398422    -3746.10484583
  entropy T*S    EENTRO =        -0.00000000
  eigenvalues    EBANDS =      -560.27761682
  atomic energy  EATOM  =      1238.03527989
  Solvation  Ediel_sol  =         0.00000000
  ---------------------------------------------------
  free energy    TOTEN  =      -102.37420551 eV

  energy without entropy =     -102.37420551  energy(sigma->0) =     -102.37420551


--------------------------------------------------------------------------------------------------------




--------------------------------------- Iteration      1(   8)  ---------------------------------------


    POTLOK:  cpu time    1.8297: real time    2.1496
    SETDIJ:  cpu time    0.0070: real time    0.0076
     EDDAV:  cpu time    9.7945: real time    9.8160
       DOS:  cpu time    0.0000: real time    0.0003
    CHARGE:  cpu time    0.4859: real time    0.4878
    MIXING:  cpu time    0.0490: real time    0.0487
    --------------------------------------------
      LOOP:  cpu time   12.1662: real time   12.5099

 eigenvalue-minimisations  :   104
 total energy-change (2. order) : 0.4985198E-01  (-0.2797205E-01)
 number of electron      56.0000021 magnetization 
 augmentation part       -3.5470903 magnetization 

 Broyden mixing:
  rms(total) = 0.62728E-01    rms(broyden)= 0.62713E-01
  rms(prec ) = 0.82181E-01
  weight for this iteration     100.00

 eigenvalues of (default mixing * dielectric matrix)
  average eigenvalue GAMMA=   1.9640
  2.6244  1.6338  1.6338

 Free energy of the ion-electron system (eV)
  ---------------------------------------------------
  alpha Z        PSCENC =         1.96423985
  Ewald energy   TEWEN  =      2629.98113996
  -Hartree energ DENC   =     -3537.56157185
  -exchange      EXHF   =         0.00000000
  -V(xc)+E(xc)   XCENC  =       -43.76247022
  PAW double counting   =      3910.71051798    -3749.03095289
  entropy T*S    EENTRO =        -0.00000000
  eigenvalues    EBANDS =      -552.66053625
  atomic energy  EATOM  =      1238.03527989
  Solvation  Ediel_sol  =         0.00000000
  ---------------------------------------------------
  free energy    TOTEN  =      -102.32435353 eV

  energy without entropy =     -102.32435353  energy(sigma->0) =     -102.32435353


--------------------------------------------------------------------------------------------------------




--------------------------------------- Iteration      1(   9)  ---------------------------------------


    POTLOK:  cpu time    1.7067: real time    1.7084
    SETDIJ:  cpu time    0.0080: real time    0.0075
     EDDAV:  cpu time   10.4154: real time   10.4254
       DOS:  cpu time    0.0000: real time    0.0003
    CHARGE:  cpu time    0.4879: real time    0.4861
    MIXING:  cpu time    0.0510: real time    0.0513
    --------------------------------------------
      LOOP:  cpu time   12.6691: real time   12.6790

 eigenvalue-minimisations  :   112
 total energy-change (2. order) : 0.3592701E-01  (-0.8112021E-02)
 number of electron      56.0000021 magnetization 
 augmentation part       -3.5336254 magnetization 

 Broyden mixing:
  rms(total) = 0.33571E-01    rms(broyden)= 0.33570E-01
  rms(prec ) = 0.45064E-01
  weight for this iteration     100.00

 eigenvalues of (default mixing * dielectric matrix)
  average eigenvalue GAMMA=   1.7450
  2.5155  1.8277  1.8277  0.8090

 Free energy of the ion-electron system (eV)
  ---------------------------------------------------
  alpha Z        PSCENC =         1.96423985
  Ewald energy   TEWEN  =      2629.98113996
  -Hartree energ DENC   =     -3549.48711138
  -exchange      EXHF   =         0.00000000
  -V(xc)+E(xc)   XCENC  =       -43.08187484
  PAW double counting   =      4046.87727478    -3885.22975479
  entropy T*S    EENTRO =        -0.00000000
  eigenvalues    EBANDS =      -541.34761999
  atomic energy  EATOM  =      1238.03527989
  Solvation  Ediel_sol  =         0.00000000
  ---------------------------------------------------
  free energy    TOTEN  =      -102.28842652 eV

  energy without entropy =     -102.28842652  energy(sigma->0) =     -102.28842652


--------------------------------------------------------------------------------------------------------




--------------------------------------- Iteration      1(  10)  ---------------------------------------


    POTLOK:  cpu time    1.7147: real time    1.7141
    SETDIJ:  cpu time    0.0070: real time    0.0075
     EDDAV:  cpu time   10.4384: real time   10.4360
       DOS:  cpu time    0.0000: real time    0.0004
    CHARGE:  cpu time    0.4869: real time    0.4861
    MIXING:  cpu time    0.0540: real time    0.0540
    --------------------------------------------
      LOOP:  cpu time   12.7011: real time   12.6981

 eigenvalue-minimisations  :   112
 total energy-change (2. order) : 0.1257113E-03  (-0.3227138E-03)
 number of electron      56.0000021 magnetization 
 augmentation part       -3.5327672 magnetization 

 Broyden mixing:
  rms(total) = 0.16732E-01    rms(broyden)= 0.16731E-01
  rms(prec ) = 0.29533E-01
  weight for this iteration     100.00

 eigenvalues of (default mixing * dielectric matrix)
  average eigenvalue GAMMA=   1.8291
  2.7049  2.1207  1.1001  1.6099  1.6099

 Free energy of the ion-electron system (eV)
  ---------------------------------------------------
  alpha Z        PSCENC =         1.96423985
  Ewald energy   TEWEN  =      2629.98113996
  -Hartree energ DENC   =     -3551.63153438
  -exchange      EXHF   =         0.00000000
  -V(xc)+E(xc)   XCENC  =       -43.06519866
  PAW double counting   =      3976.79595105    -3815.10594732
  entropy T*S    EENTRO =        -0.00000000
  eigenvalues    EBANDS =      -539.26223120
  atomic energy  EATOM  =      1238.03527989
  Solvation  Ediel_sol  =         0.00000000
  ---------------------------------------------------
  free energy    TOTEN  =      -102.28830081 eV

  energy without entropy =     -102.28830081  energy(sigma->0) =     -102.28830081


--------------------------------------------------------------------------------------------------------




--------------------------------------- Iteration      1(  11)  ---------------------------------------


    POTLOK:  cpu time    1.7267: real time    1.7300
    SETDIJ:  cpu time    0.0070: real time    0.0075
     EDDAV:  cpu time    9.8315: real time    9.8459
       DOS:  cpu time    0.0010: real time    0.0003
    CHARGE:  cpu time    0.4809: real time    0.4834
    MIXING:  cpu time    0.0570: real time    0.0565
    --------------------------------------------
      LOOP:  cpu time   12.1042: real time   12.1237

 eigenvalue-minimisations  :   104
 total energy-change (2. order) : 0.3153506E-05  (-0.6027347E-03)
 number of electron      56.0000021 magnetization 
 augmentation part       -3.5320955 magnetization 

 Broyden mixing:
  rms(total) = 0.78601E-02    rms(broyden)= 0.78598E-02
  rms(prec ) = 0.14954E-01
  weight for this iteration     100.00

 eigenvalues of (default mixing * dielectric matrix)
  average eigenvalue GAMMA=   1.8589
  3.1833  2.5730  1.7312  1.7312  1.0500  0.8848

 Free energy of the ion-electron system (eV)
  ---------------------------------------------------
  alpha Z        PSCENC =         1.96423985
  Ewald energy   TEWEN  =      2629.98113996
  -Hartree energ DENC   =     -3558.08791146
  -exchange      EXHF   =         0.00000000
  -V(xc)+E(xc)   XCENC  =       -42.88634719
  PAW double counting   =      3932.17795839    -3770.44560462
  entropy T*S    EENTRO =        -0.00000000
  eigenvalues    EBANDS =      -533.02705247
  atomic energy  EATOM  =      1238.03527989
  Solvation  Ediel_sol  =         0.00000000
  ---------------------------------------------------
  free energy    TOTEN  =      -102.28829766 eV

  energy without entropy =     -102.28829766  energy(sigma->0) =     -102.28829766


--------------------------------------------------------------------------------------------------------




--------------------------------------- Iteration      1(  12)  ---------------------------------------


    POTLOK:  cpu time    1.7267: real time    1.7285
    SETDIJ:  cpu time    0.0080: real time    0.0077
     EDDAV:  cpu time   10.4344: real time   10.4483
       DOS:  cpu time    0.0000: real time    0.0004
    CHARGE:  cpu time    0.4849: real time    0.4849
    MIXING:  cpu time    0.0610: real time    0.0604
    --------------------------------------------
      LOOP:  cpu time   12.7151: real time   12.7301

 eigenvalue-minimisations  :   112
 total energy-change (2. order) :-0.4097327E-02  (-0.1179121E-03)
 number of electron      56.0000021 magnetization 
 augmentation part       -3.5317495 magnetization 

 Broyden mixing:
  rms(total) = 0.56522E-02    rms(broyden)= 0.56521E-02
  rms(prec ) = 0.10055E-01
  weight for this iteration     100.00

 eigenvalues of (default mixing * dielectric matrix)
  average eigenvalue GAMMA=   2.1038
  4.7316  2.6873  2.2218  1.5751  1.5751  0.9678  0.9678

 Free energy of the ion-electron system (eV)
  ---------------------------------------------------
  alpha Z        PSCENC =         1.96423985
  Ewald energy   TEWEN  =      2629.98113996
  -Hartree energ DENC   =     -3560.69738083
  -exchange      EXHF   =         0.00000000
  -V(xc)+E(xc)   XCENC  =       -42.83781051
  PAW double counting   =      3918.94905019    -3757.20990168
  entropy T*S    EENTRO =        -0.00000000
  eigenvalues    EBANDS =      -530.47701185
  atomic energy  EATOM  =      1238.03527989
  Solvation  Ediel_sol  =         0.00000000
  ---------------------------------------------------
  free energy    TOTEN  =      -102.29239499 eV

  energy without entropy =     -102.29239499  energy(sigma->0) =     -102.29239499


--------------------------------------------------------------------------------------------------------




--------------------------------------- Iteration      1(  13)  ---------------------------------------


    POTLOK:  cpu time    1.7427: real time    1.7670
    SETDIJ:  cpu time    0.0070: real time    0.0076
     EDDAV:  cpu time   10.4744: real time   10.4748
       DOS:  cpu time    0.0000: real time    0.0003
    CHARGE:  cpu time    0.4859: real time    0.4845
    MIXING:  cpu time    0.0650: real time    0.0658
    --------------------------------------------
      LOOP:  cpu time   12.7751: real time   12.7998

 eigenvalue-minimisations  :   112
 total energy-change (2. order) :-0.4583548E-02  (-0.2034070E-03)
 number of electron      56.0000021 magnetization 
 augmentation part       -3.5314920 magnetization 

 Broyden mixing:
  rms(total) = 0.35118E-02    rms(broyden)= 0.35116E-02
  rms(prec ) = 0.52164E-02
  weight for this iteration     100.00

 eigenvalues of (default mixing * dielectric matrix)
  average eigenvalue GAMMA=   2.1988
  5.6618  2.8355  2.4248  1.8003  1.8003  0.9676  0.9676  1.1326

 Free energy of the ion-electron system (eV)
  ---------------------------------------------------
  alpha Z        PSCENC =         1.96423985
  Ewald energy   TEWEN  =      2629.98113996
  -Hartree energ DENC   =     -3563.64789163
  -exchange      EXHF   =         0.00000000
  -V(xc)+E(xc)   XCENC  =       -42.78731140
  PAW double counting   =      3920.82695100    -3759.09470003
  entropy T*S    EENTRO =        -0.00000000
  eigenvalues    EBANDS =      -527.57468617
  atomic energy  EATOM  =      1238.03527989
  Solvation  Ediel_sol  =         0.00000000
  ---------------------------------------------------
  free energy    TOTEN  =      -102.29697853 eV

  energy without entropy =     -102.29697853  energy(sigma->0) =     -102.29697853


--------------------------------------------------------------------------------------------------------




--------------------------------------- Iteration      1(  14)  ---------------------------------------


    POTLOK:  cpu time    1.7257: real time    1.7252
    SETDIJ:  cpu time    0.0070: real time    0.0076
     EDDAV:  cpu time   10.4434: real time   10.4434
       DOS:  cpu time    0.0000: real time    0.0003
    CHARGE:  cpu time    0.4859: real time    0.4862
    MIXING:  cpu time    0.0730: real time    0.0725
    --------------------------------------------
      LOOP:  cpu time   12.7351: real time   12.7352

 eigenvalue-minimisations  :   112
 total energy-change (2. order) :-0.4746531E-02  (-0.4519138E-04)
 number of electron      56.0000021 magnetization 
 augmentation part       -3.5308815 magnetization 

 Broyden mixing:
  rms(total) = 0.15242E-02    rms(broyden)= 0.15241E-02
  rms(prec ) = 0.26638E-02
  weight for this iteration     100.00

 eigenvalues of (default mixing * dielectric matrix)
  average eigenvalue GAMMA=   2.3101
  6.5924  2.9006  2.9006  2.1245  1.6439  1.6439  1.0816  0.9518  0.9518

 Free energy of the ion-electron system (eV)
  ---------------------------------------------------
  alpha Z        PSCENC =         1.96423985
  Ewald energy   TEWEN  =      2629.98113996
  -Hartree energ DENC   =     -3564.41516825
  -exchange      EXHF   =         0.00000000
  -V(xc)+E(xc)   XCENC  =       -42.79702697
  PAW double counting   =      3923.43926081    -3761.71046661
  entropy T*S    EENTRO =        -0.00000000
  eigenvalues    EBANDS =      -526.79898375
  atomic energy  EATOM  =      1238.03527989
  Solvation  Ediel_sol  =         0.00000000
  ---------------------------------------------------
  free energy    TOTEN  =      -102.30172506 eV

  energy without entropy =     -102.30172506  energy(sigma->0) =     -102.30172506


--------------------------------------------------------------------------------------------------------




--------------------------------------- Iteration      1(  15)  ---------------------------------------


    POTLOK:  cpu time    1.7217: real time    1.7228
    SETDIJ:  cpu time    0.0080: real time    0.0075
     EDDAV:  cpu time   10.4524: real time   10.4532
       DOS:  cpu time    0.0000: real time    0.0003
    CHARGE:  cpu time    0.4939: real time    0.4941
    MIXING:  cpu time    0.0780: real time    0.0780
    --------------------------------------------
      LOOP:  cpu time   12.7541: real time   12.7559

 eigenvalue-minimisations  :   112
 total energy-change (2. order) :-0.4100570E-02  (-0.4865927E-04)
 number of electron      56.0000021 magnetization 
 augmentation part       -3.5306886 magnetization 

 Broyden mixing:
  rms(total) = 0.15732E-02    rms(broyden)= 0.15731E-02
  rms(prec ) = 0.19942E-02
  weight for this iteration     100.00

 eigenvalues of (default mixing * dielectric matrix)
  average eigenvalue GAMMA=   2.3158
  6.7901  3.8637  2.6226  2.1203  1.8429  1.8429  1.2012  0.9276  0.9735  0.9735

 Free energy of the ion-electron system (eV)
  ---------------------------------------------------
  alpha Z        PSCENC =         1.96423985
  Ewald energy   TEWEN  =      2629.98113996
  -Hartree energ DENC   =     -3564.58116727
  -exchange      EXHF   =         0.00000000
  -V(xc)+E(xc)   XCENC  =       -42.80746476
  PAW double counting   =      3927.11886394    -3765.38900411
  entropy T*S    EENTRO =        -0.00000000
  eigenvalues    EBANDS =      -526.62771313
  atomic energy  EATOM  =      1238.03527989
  Solvation  Ediel_sol  =         0.00000000
  ---------------------------------------------------
  free energy    TOTEN  =      -102.30582563 eV

  energy without entropy =     -102.30582563  energy(sigma->0) =     -102.30582563


--------------------------------------------------------------------------------------------------------




--------------------------------------- Iteration      1(  16)  ---------------------------------------


    POTLOK:  cpu time    1.7157: real time    1.7187
    SETDIJ:  cpu time    0.0080: real time    0.0075
     EDDAV:  cpu time   10.4444: real time   10.4451
       DOS:  cpu time    0.0000: real time    0.0005
    CHARGE:  cpu time    0.4849: real time    0.4858
    MIXING:  cpu time    0.0860: real time    0.0848
    --------------------------------------------
      LOOP:  cpu time   12.7391: real time   12.7425

 eigenvalue-minimisations  :   112
 total energy-change (2. order) :-0.1006980E-02  (-0.5582626E-05)
 number of electron      56.0000021 magnetization 
 augmentation part       -3.5309211 magnetization 

 Broyden mixing:
  rms(total) = 0.62442E-03    rms(broyden)= 0.62441E-03
  rms(prec ) = 0.93771E-03
  weight for this iteration     100.00

 eigenvalues of (default mixing * dielectric matrix)
  average eigenvalue GAMMA=   2.4301
  7.3520  4.7650  2.6594  2.6594  1.8103  1.8103  1.3938  1.3938  0.9671  0.9671
  0.9535

 Free energy of the ion-electron system (eV)
  ---------------------------------------------------
  alpha Z        PSCENC =         1.96423985
  Ewald energy   TEWEN  =      2629.98113996
  -Hartree energ DENC   =     -3564.68768151
  -exchange      EXHF   =         0.00000000
  -V(xc)+E(xc)   XCENC  =       -42.80471536
  PAW double counting   =      3926.76999503    -3765.03868734
  entropy T*S    EENTRO =        -0.00000000
  eigenvalues    EBANDS =      -526.52640313
  atomic energy  EATOM  =      1238.03527989
  Solvation  Ediel_sol  =         0.00000000
  ---------------------------------------------------
  free energy    TOTEN  =      -102.30683261 eV

  energy without entropy =     -102.30683261  energy(sigma->0) =     -102.30683261


--------------------------------------------------------------------------------------------------------




--------------------------------------- Iteration      1(  17)  ---------------------------------------


    POTLOK:  cpu time    1.7117: real time    1.7124
    SETDIJ:  cpu time    0.0080: real time    0.0076
     EDDAV:  cpu time    9.8625: real time    9.8651
       DOS:  cpu time    0.0010: real time    0.0005
    CHARGE:  cpu time    0.4959: real time    0.4961
    MIXING:  cpu time    0.0950: real time    0.0951
    --------------------------------------------
      LOOP:  cpu time   12.1741: real time   12.1768

 eigenvalue-minimisations  :   104
 total energy-change (2. order) :-0.1048525E-02  (-0.8998635E-05)
 number of electron      56.0000021 magnetization 
 augmentation part       -3.5311427 magnetization 

 Broyden mixing:
  rms(total) = 0.32438E-03    rms(broyden)= 0.32433E-03
  rms(prec ) = 0.46327E-03
  weight for this iteration     100.00

 eigenvalues of (default mixing * dielectric matrix)
  average eigenvalue GAMMA=   2.3965
  7.5255  4.9842  2.7268  2.7268  1.9392  1.9392  1.4953  1.4953  1.0172  1.0172
  0.9458  0.9458

 Free energy of the ion-electron system (eV)
  ---------------------------------------------------
  alpha Z        PSCENC =         1.96423985
  Ewald energy   TEWEN  =      2629.98113996
  -Hartree energ DENC   =     -3564.69922745
  -exchange      EXHF   =         0.00000000
  -V(xc)+E(xc)   XCENC  =       -42.80725464
  PAW double counting   =      3924.58514511    -3762.85281691
  entropy T*S    EENTRO =        -0.00000000
  eigenvalues    EBANDS =      -526.51438695
  atomic energy  EATOM  =      1238.03527989
  Solvation  Ediel_sol  =         0.00000000
  ---------------------------------------------------
  free energy    TOTEN  =      -102.30788114 eV

  energy without entropy =     -102.30788114  energy(sigma->0) =     -102.30788114


--------------------------------------------------------------------------------------------------------




--------------------------------------- Iteration      1(  18)  ---------------------------------------


    POTLOK:  cpu time    1.6937: real time    1.7449
    SETDIJ:  cpu time    0.0070: real time    0.0076
     EDDAV:  cpu time    9.8215: real time    9.8174
       DOS:  cpu time    0.0000: real time    0.0006
    CHARGE:  cpu time    0.4859: real time    0.4856
    MIXING:  cpu time    0.1040: real time    0.1041
    --------------------------------------------
      LOOP:  cpu time   12.1122: real time   12.1603

 eigenvalue-minimisations  :   104
 total energy-change (2. order) :-0.2353129E-03  (-0.7497929E-06)
 number of electron      56.0000021 magnetization 
 augmentation part       -3.5311111 magnetization 

 Broyden mixing:
  rms(total) = 0.18547E-03    rms(broyden)= 0.18544E-03
  rms(prec ) = 0.26489E-03
  weight for this iteration     100.00

 eigenvalues of (default mixing * dielectric matrix)
  average eigenvalue GAMMA=   2.4922
  8.1648  5.7863  3.1901  2.5655  2.4356  1.7928  1.7928  1.3792  1.3792  0.9974
  0.9974  0.9586  0.9586

 Free energy of the ion-electron system (eV)
  ---------------------------------------------------
  alpha Z        PSCENC =         1.96423985
  Ewald energy   TEWEN  =      2629.98113996
  -Hartree energ DENC   =     -3564.73760383
  -exchange      EXHF   =         0.00000000
  -V(xc)+E(xc)   XCENC  =       -42.80666105
  PAW double counting   =      3924.37929564    -3762.64756477
  entropy T*S    EENTRO =        -0.00000000
  eigenvalues    EBANDS =      -526.47624214
  atomic energy  EATOM  =      1238.03527989
  Solvation  Ediel_sol  =         0.00000000
  ---------------------------------------------------
  free energy    TOTEN  =      -102.30811645 eV

  energy without entropy =     -102.30811645  energy(sigma->0) =     -102.30811645


--------------------------------------------------------------------------------------------------------




--------------------------------------- Iteration      1(  19)  ---------------------------------------


    POTLOK:  cpu time    1.7247: real time    1.7235
    SETDIJ:  cpu time    0.0070: real time    0.0076
     EDDAV:  cpu time    9.8845: real time    9.8807
       DOS:  cpu time    0.0000: real time    0.0006
    CHARGE:  cpu time    0.4889: real time    0.4872
    MIXING:  cpu time    0.1160: real time    0.1160
    --------------------------------------------
      LOOP:  cpu time   12.2211: real time   12.2156

 eigenvalue-minimisations  :   104
 total energy-change (2. order) :-0.1511198E-03  (-0.5213320E-06)
 number of electron      56.0000021 magnetization 
 augmentation part       -3.5311158 magnetization 

 Broyden mixing:
  rms(total) = 0.15117E-03    rms(broyden)= 0.15116E-03
  rms(prec ) = 0.19086E-03
  weight for this iteration     100.00

 eigenvalues of (default mixing * dielectric matrix)
  average eigenvalue GAMMA=   2.5099
  8.3510  6.1892  3.4496  2.6427  2.2230  2.2230  1.7882  1.7882  1.2992  1.2992
  0.9941  0.9941  0.9485  0.9485

 Free energy of the ion-electron system (eV)
  ---------------------------------------------------
  alpha Z        PSCENC =         1.96423985
  Ewald energy   TEWEN  =      2629.98113996
  -Hartree energ DENC   =     -3564.75608568
  -exchange      EXHF   =         0.00000000
  -V(xc)+E(xc)   XCENC  =       -42.80545187
  PAW double counting   =      3924.56477075    -3762.83336203
  entropy T*S    EENTRO =        -0.00000000
  eigenvalues    EBANDS =      -526.45879844
  atomic energy  EATOM  =      1238.03527989
  Solvation  Ediel_sol  =         0.00000000
  ---------------------------------------------------
  free energy    TOTEN  =      -102.30826757 eV

  energy without entropy =     -102.30826757  energy(sigma->0) =     -102.30826757


--------------------------------------------------------------------------------------------------------




--------------------------------------- Iteration      1(  20)  ---------------------------------------


    POTLOK:  cpu time    1.7207: real time    1.7211
    SETDIJ:  cpu time    0.0080: real time    0.0081
     EDDAV:  cpu time    8.7287: real time    8.7251
       DOS:  cpu time    0.0000: real time    0.0005
    CHARGE:  cpu time    0.4849: real time    0.4843
    MIXING:  cpu time    0.1270: real time    0.1275
    --------------------------------------------
      LOOP:  cpu time   11.0693: real time   11.0666

 eigenvalue-minimisations  :    88
 total energy-change (2. order) :-0.5888734E-04  (-0.1351797E-06)
 number of electron      56.0000021 magnetization 
 augmentation part       -3.5310957 magnetization 

 Broyden mixing:
  rms(total) = 0.65457E-04    rms(broyden)= 0.65457E-04
  rms(prec ) = 0.87202E-04
  weight for this iteration     100.00

 eigenvalues of (default mixing * dielectric matrix)
  average eigenvalue GAMMA=   2.5082
  8.6017  6.3125  3.9191  2.6796  2.6796  2.0962  1.8095  1.8095  1.3888  1.3888
  1.1199  0.9789  0.9789  0.9739  0.8854

 Free energy of the ion-electron system (eV)
  ---------------------------------------------------
  alpha Z        PSCENC =         1.96423985
  Ewald energy   TEWEN  =      2629.98113996
  -Hartree energ DENC   =     -3564.75984696
  -exchange      EXHF   =         0.00000000
  -V(xc)+E(xc)   XCENC  =       -42.80641893
  PAW double counting   =      3924.45352012    -3762.72211679
  entropy T*S    EENTRO =        -0.00000000
  eigenvalues    EBANDS =      -526.45412359
  atomic energy  EATOM  =      1238.03527989
  Solvation  Ediel_sol  =         0.00000000
  ---------------------------------------------------
  free energy    TOTEN  =      -102.30832646 eV

  energy without entropy =     -102.30832646  energy(sigma->0) =     -102.30832646


--------------------------------------------------------------------------------------------------------




--------------------------------------- Iteration      1(  21)  ---------------------------------------


    POTLOK:  cpu time    1.7137: real time    1.7282
    SETDIJ:  cpu time    0.0080: real time    0.0075
     EDDAV:  cpu time    8.6727: real time    8.6828
       DOS:  cpu time    0.0000: real time    0.0004
    CHARGE:  cpu time    0.4859: real time    0.4874
    MIXING:  cpu time    0.1390: real time    0.1382
    --------------------------------------------
      LOOP:  cpu time   11.0193: real time   11.0444

 eigenvalue-minimisations  :    88
 total energy-change (2. order) :-0.1868891E-04  (-0.5454243E-07)
 number of electron      56.0000021 magnetization 
 augmentation part       -3.5310866 magnetization 

 Broyden mixing:
  rms(total) = 0.56630E-04    rms(broyden)= 0.56627E-04
  rms(prec ) = 0.71473E-04
  weight for this iteration     100.00

 eigenvalues of (default mixing * dielectric matrix)
  average eigenvalue GAMMA=   2.5105
  8.5726  6.6407  4.1609  2.9523  2.5938  1.9509  1.9509  1.8550  1.8550  1.5482
  1.1119  0.9432  0.9432  1.0486  1.0486  0.9918

 Free energy of the ion-electron system (eV)
  ---------------------------------------------------
  alpha Z        PSCENC =         1.96423985
  Ewald energy   TEWEN  =      2629.98113996
  -Hartree energ DENC   =     -3564.76445360
  -exchange      EXHF   =         0.00000000
  -V(xc)+E(xc)   XCENC  =       -42.80639270
  PAW double counting   =      3924.54482706    -3762.81341761
  entropy T*S    EENTRO =        -0.00000000
  eigenvalues    EBANDS =      -526.44956799
  atomic energy  EATOM  =      1238.03527989
  Solvation  Ediel_sol  =         0.00000000
  ---------------------------------------------------
  free energy    TOTEN  =      -102.30834515 eV

  energy without entropy =     -102.30834515  energy(sigma->0) =     -102.30834515


--------------------------------------------------------------------------------------------------------




--------------------------------------- Iteration      1(  22)  ---------------------------------------


    POTLOK:  cpu time    1.7047: real time    1.7082
    SETDIJ:  cpu time    0.0070: real time    0.0075
     EDDAV:  cpu time    8.6887: real time    8.6984
       DOS:  cpu time    0.0000: real time    0.0003
    CHARGE:  cpu time    0.4829: real time    0.4847
    MIXING:  cpu time    0.1510: real time    0.1512
    --------------------------------------------
      LOOP:  cpu time   11.0343: real time   11.0503

 eigenvalue-minimisations  :    88
 total energy-change (2. order) :-0.7833625E-05  (-0.1925010E-07)
 number of electron      56.0000021 magnetization 
 augmentation part       -3.5311000 magnetization 

 Broyden mixing:
  rms(total) = 0.22457E-04    rms(broyden)= 0.22456E-04
  rms(prec ) = 0.29120E-04
  weight for this iteration     100.00

 eigenvalues of (default mixing * dielectric matrix)
  average eigenvalue GAMMA=   2.5050
  8.8229  6.7166  4.5963  3.1216  2.4958  2.4958  1.8459  1.8459  1.6869  1.6869
  1.1560  1.1560  1.1094  0.9559  0.9559  0.9683  0.9683

 Free energy of the ion-electron system (eV)
  ---------------------------------------------------
  alpha Z        PSCENC =         1.96423985
  Ewald energy   TEWEN  =      2629.98113996
  -Hartree energ DENC   =     -3564.76270278
  -exchange      EXHF   =         0.00000000
  -V(xc)+E(xc)   XCENC  =       -42.80624818
  PAW double counting   =      3924.59605087    -3762.86456297
  entropy T*S    EENTRO =        -0.00000000
  eigenvalues    EBANDS =      -526.45154962
  atomic energy  EATOM  =      1238.03527989
  Solvation  Ediel_sol  =         0.00000000
  ---------------------------------------------------
  free energy    TOTEN  =      -102.30835298 eV

  energy without entropy =     -102.30835298  energy(sigma->0) =     -102.30835298


--------------------------------------------------------------------------------------------------------




--------------------------------------- Iteration      1(  23)  ---------------------------------------


    POTLOK:  cpu time    1.7097: real time    1.7123
    SETDIJ:  cpu time    0.0080: real time    0.0077
     EDDAV:  cpu time    8.6957: real time    8.7047
       DOS:  cpu time    0.0000: real time    0.0003
    CHARGE:  cpu time    0.4859: real time    0.4879
    MIXING:  cpu time    0.1630: real time    0.1631
    --------------------------------------------
      LOOP:  cpu time   11.0623: real time   11.0760

 eigenvalue-minimisations  :    88
 total energy-change (2. order) :-0.2854455E-05  (-0.6233382E-08)
 number of electron      56.0000021 magnetization 
 augmentation part       -3.5311078 magnetization 

 Broyden mixing:
  rms(total) = 0.19430E-04    rms(broyden)= 0.19428E-04
  rms(prec ) = 0.23798E-04
  weight for this iteration     100.00

 eigenvalues of (default mixing * dielectric matrix)
  average eigenvalue GAMMA=   2.4671
  8.8783  6.7532  4.6985  3.0512  2.4983  2.4983  2.0024  2.0024  1.6647  1.6647
  1.5536  1.1054  1.1054  1.0228  1.0228  1.0357  0.9246  0.9246

 Free energy of the ion-electron system (eV)
  ---------------------------------------------------
  alpha Z        PSCENC =         1.96423985
  Ewald energy   TEWEN  =      2629.98113996
  -Hartree energ DENC   =     -3564.76235953
  -exchange      EXHF   =         0.00000000
  -V(xc)+E(xc)   XCENC  =       -42.80633296
  PAW double counting   =      3924.56317134    -3762.83167112
  entropy T*S    EENTRO =        -0.00000000
  eigenvalues    EBANDS =      -526.45182326
  atomic energy  EATOM  =      1238.03527989
  Solvation  Ediel_sol  =         0.00000000
  ---------------------------------------------------
  free energy    TOTEN  =      -102.30835584 eV

  energy without entropy =     -102.30835584  energy(sigma->0) =     -102.30835584


--------------------------------------------------------------------------------------------------------




--------------------------------------- Iteration      1(  24)  ---------------------------------------


    POTLOK:  cpu time    1.7217: real time    1.7386
    SETDIJ:  cpu time    0.0070: real time    0.0075
     EDDAV:  cpu time    8.1108: real time    8.1223
       DOS:  cpu time    0.0000: real time    0.0003
    CHARGE:  cpu time    0.4909: real time    0.4900
    MIXING:  cpu time    0.1760: real time    0.1767
    --------------------------------------------
      LOOP:  cpu time   10.5064: real time   10.5354

 eigenvalue-minimisations  :    80
 total energy-change (2. order) :-0.2395431E-05  (-0.2784889E-08)
 number of electron      56.0000021 magnetization 
 augmentation part       -3.5311059 magnetization 

 Broyden mixing:
  rms(total) = 0.12363E-04    rms(broyden)= 0.12363E-04
  rms(prec ) = 0.14260E-04
  weight for this iteration     100.00

 eigenvalues of (default mixing * dielectric matrix)
  average eigenvalue GAMMA=   2.5348
  8.8559  7.0777  5.3349  3.8019  2.8790  2.4722  2.2700  1.8605  1.8605  1.6727
  1.6727  1.1842  1.1842  1.1984  0.9848  0.9848  0.9393  0.9393  0.9876

 Free energy of the ion-electron system (eV)
  ---------------------------------------------------
  alpha Z        PSCENC =         1.96423985
  Ewald energy   TEWEN  =      2629.98113996
  -Hartree energ DENC   =     -3564.76287251
  -exchange      EXHF   =         0.00000000
  -V(xc)+E(xc)   XCENC  =       -42.80638600
  PAW double counting   =      3924.49467492    -3762.76320131
  entropy T*S    EENTRO =        -0.00000000
  eigenvalues    EBANDS =      -526.45123304
  atomic energy  EATOM  =      1238.03527989
  Solvation  Ediel_sol  =         0.00000000
  ---------------------------------------------------
  free energy    TOTEN  =      -102.30835823 eV

  energy without entropy =     -102.30835823  energy(sigma->0) =     -102.30835823


--------------------------------------------------------------------------------------------------------




--------------------------------------- Iteration      1(  25)  ---------------------------------------


    POTLOK:  cpu time    1.7257: real time    1.7286
    SETDIJ:  cpu time    0.0070: real time    0.0075
     EDDAV:  cpu time    8.0948: real time    8.1060
       DOS:  cpu time    0.0010: real time    0.0003
    --------------------------------------------
      LOOP:  cpu time    9.8285: real time    9.8423

 eigenvalue-minimisations  :    80
 total energy-change (2. order) :-0.9417940E-06  (-0.1646081E-08)
 number of electron      56.0000021 magnetization 
 augmentation part       -3.5311059 magnetization 

 Free energy of the ion-electron system (eV)
  ---------------------------------------------------
  alpha Z        PSCENC =         1.96423985
  Ewald energy   TEWEN  =      2629.98113996
  -Hartree energ DENC   =     -3564.76365112
  -exchange      EXHF   =         0.00000000
  -V(xc)+E(xc)   XCENC  =       -42.80635422
  PAW double counting   =      3924.51117777    -3762.77970639
  entropy T*S    EENTRO =        -0.00000000
  eigenvalues    EBANDS =      -526.45048492
  atomic energy  EATOM  =      1238.03527989
  Solvation  Ediel_sol  =         0.00000000
  ---------------------------------------------------
  free energy    TOTEN  =      -102.30835917 eV

  energy without entropy =     -102.30835917  energy(sigma->0) =     -102.30835917


--------------------------------------------------------------------------------------------------------




 average (electrostatic) potential at core
  the test charge radii are     0.9892  1.1631  0.5201
  (the norm of the test charge is              1.0000)
       1 -93.3549       2 -93.4724       3 -93.4791       4 -93.4724       5 -93.5128
       6 -93.5128       7 -40.3831       8 -40.3430       9 -40.3831      10 -40.4925
      11 -40.6925      12 -40.6963      13 -41.0790      14 -40.6929      15 -40.6965
      16 -40.7045      17 -40.7052      18 -40.7075      19 -41.0670      20 -41.0599
      21 -41.0606      22 -41.0668      23 -40.7003      24 -40.7047      25 -40.7042
      26 -40.7001
 
 
 
 E-fermi :  -5.3972     XC(G=0):  -0.6078     alpha+bet : -0.3388


 k-point     1 :       0.0000    0.0000    0.0000
  band No.  band energies     occupation 
      1     -15.2619      2.00000
      2     -14.3301      2.00000
      3     -14.1592      2.00000
      4     -13.7890      2.00000
      5     -12.8460      2.00000
      6     -12.5594      2.00000
      7     -11.7001      2.00000
      8     -11.5849      2.00000
      9     -11.3887      2.00000
     10     -10.4532      2.00000
     11      -8.9817      2.00000
     12      -8.6291      2.00000
     13      -8.6200      2.00000
     14      -8.6182      2.00000
     15      -8.2087      2.00000
     16      -8.2030      2.00000
     17      -8.1967      2.00000
     18      -7.8689      2.00000
     19      -7.8652      2.00000
     20      -7.8561      2.00000
     21      -6.7835      2.00000
     22      -6.7709      2.00000
     23      -6.4835      2.00000
     24      -6.4815      2.00000
     25      -6.4596      2.00000
     26      -6.3904      2.00000
     27      -6.3728      2.00000
     28      -6.3629      2.00000
     29      -1.6790      0.00000
     30      -1.4113      0.00000
     31      -1.4015      0.00000
     32      -1.2510      0.00000
     33      -1.1626      0.00000
     34      -1.0674      0.00000
     35      -1.0536      0.00000
     36      -0.9373      0.00000
     37      -0.9033      0.00000
     38      -0.5622      0.00000
     39      -0.4408      0.00000
     40      -0.3047      0.00000
     41      -0.2915      0.00000
     42      -0.2277      0.00000


--------------------------------------------------------------------------------------------------------


 soft charge-density along one line, spin component           1
         0         1         2         3         4         5         6         7         8         9
 total charge-density along one line
 
 pseudopotential strength for first ion, spin component:           1
 19.608  27.364  -0.000   0.002   0.000  -0.001   0.004   0.000
 27.364  38.192  -0.001   0.003   0.000  -0.001   0.005   0.001
 -0.000  -0.001   4.358  -0.000  -0.000   8.129  -0.000  -0.000
  0.002   0.003  -0.000   4.358   0.000  -0.000   8.129   0.000
  0.000   0.000  -0.000   0.000   4.358  -0.000   0.000   8.129
 -0.001  -0.001   8.129  -0.000  -0.000  15.174  -0.000  -0.000
  0.004   0.005  -0.000   8.129   0.000  -0.000  15.174   0.000
  0.000   0.001  -0.000   0.000   8.129  -0.000   0.000  15.174
 total augmentation occupancy for first ion, spin component:           1
  5.590  -2.054   0.068  -0.326  -0.044  -0.020   0.097   0.013
 -2.054   0.814  -0.042   0.199   0.027   0.009  -0.044  -0.006
  0.068  -0.042   2.873  -0.094  -0.012  -0.626   0.034   0.005
 -0.326   0.199  -0.094   3.301   0.060   0.034  -0.782  -0.022
 -0.044   0.027  -0.012   0.060   2.861   0.005  -0.022  -0.622
 -0.020   0.009  -0.626   0.034   0.005   0.142  -0.010  -0.001
  0.097  -0.044   0.034  -0.782  -0.022  -0.010   0.188   0.006
  0.013  -0.006   0.005  -0.022  -0.622  -0.001   0.006   0.141


------------------------ aborting loop because EDIFF is reached ----------------------------------------


    CHARGE:  cpu time    0.4819: real time    0.4830
    FORLOC:  cpu time    0.1710: real time    0.1708
    FORNL :  cpu time    1.0738: real time    1.0752
    STRESS:  cpu time    7.5788: real time    7.5887
    FORCOR:  cpu time    1.7077: real time    1.7089
    FORHAR:  cpu time    0.5799: real time    0.5822
    MIXING:  cpu time    0.1910: real time    0.1909
    OFIELD:  cpu time    0.0000: real time    0.0000

  FORCE on cell =-STRESS in cart. coord.  units (eV):
  Direction    XX          YY          ZZ          XY          YZ          ZX
  --------------------------------------------------------------------------------------
  Alpha Z     1.96424     1.96424     1.96424
  Ewald     876.64706   876.62235   876.71007    -0.21850     0.02563    -0.50464
  Hartree  1188.19942  1188.05941  1188.50507    -0.10376    -0.42650    -0.19394
  E(xc)    -177.23357  -177.27380  -177.20374     0.04881     0.01222    -0.00826
  Local   -2568.15240 -2567.99594 -2568.42401     0.33337     0.37708     0.71436
  n-local   272.26563   272.47063   272.02128    -0.24954    -0.00283     0.00308
  augment   -27.42854   -27.43415   -27.43774     0.00454     0.00385    -0.00271
  Kinetic   429.70221   429.57290   429.71617     0.15700     0.00482    -0.00295
  Fock        0.00000     0.00000     0.00000     0.00000     0.00000     0.00000
  -------------------------------------------------------------------------------------
  Total      -4.03595    -4.01436    -4.14866    -0.02808    -0.00571     0.00493
  in kB      -0.80829    -0.80396    -0.83086    -0.00562    -0.00114     0.00099
  external pressure =       -0.81 kB  Pullay stress =        0.00 kB


 VOLUME and BASIS-vectors are now :
 -----------------------------------------------------------------------------
  energy-cutoff  :      400.00
[...]
    SETDIJ:  cpu time    0.0080: real time    0.0076
     EDDAV:  cpu time   11.0703: real time   11.0697
       DOS:  cpu time    0.0010: real time    0.0004
    CHARGE:  cpu time    0.4829: real time    0.4846
    MIXING:  cpu time    0.0450: real time    0.0449
    --------------------------------------------
      LOOP:  cpu time   13.3270: real time   13.3375

 eigenvalue-minimisations  :   120
 total energy-change (2. order) :-0.1969146E-04  (-0.2651490E-04)
 number of electron      56.0000021 magnetization 
 augmentation part       -3.5233397 magnetization 

 Broyden mixing:
  rms(total) = 0.15507E-02    rms(broyden)= 0.15501E-02
  rms(prec ) = 0.16597E-02
  weight for this iteration     100.00

 eigenvalues of (default mixing * dielectric matrix)
  average eigenvalue GAMMA=   1.0120
  1.0120

 Free energy of the ion-electron system (eV)
  ---------------------------------------------------
  alpha Z        PSCENC =         1.96423985
  Ewald energy   TEWEN  =      2633.98740342
  -Hartree energ DENC   =     -3568.25800631
  -exchange      EXHF   =         0.00000000
  -V(xc)+E(xc)   XCENC  =       -42.08441681
  PAW double counting   =      4181.23794988    -4019.60382414
  entropy T*S    EENTRO =        -0.00000000
  eigenvalues    EBANDS =      -527.88771446
  atomic energy  EATOM  =      1238.03527989
  Solvation  Ediel_sol  =         0.00000000
  ---------------------------------------------------
  free energy    TOTEN  =      -102.60908868 eV

  energy without entropy =     -102.60908868  energy(sigma->0) =     -102.60908868


--------------------------------------------------------------------------------------------------------




--------------------------------------- Iteration     18(   3)  ---------------------------------------


    POTLOK:  cpu time    1.7227: real time    1.7218
    SETDIJ:  cpu time    0.0070: real time    0.0075
     EDDAV:  cpu time   11.0573: real time   11.0557
       DOS:  cpu time    0.0000: real time    0.0004
    CHARGE:  cpu time    0.4859: real time    0.4860
    MIXING:  cpu time    0.0470: real time    0.0462
    --------------------------------------------
      LOOP:  cpu time   13.3200: real time   13.3176

 eigenvalue-minimisations  :   120
 total energy-change (2. order) : 0.1455924E-05  (-0.8673014E-06)
 number of electron      56.0000021 magnetization 
 augmentation part       -3.5232691 magnetization 

 Broyden mixing:
  rms(total) = 0.89191E-03    rms(broyden)= 0.89187E-03
  rms(prec ) = 0.95712E-03
  weight for this iteration     100.00

 eigenvalues of (default mixing * dielectric matrix)
  average eigenvalue GAMMA=   1.5826
  1.0367  2.1285

 Free energy of the ion-electron system (eV)
  ---------------------------------------------------
  alpha Z        PSCENC =         1.96423985
  Ewald energy   TEWEN  =      2633.98740342
  -Hartree energ DENC   =     -3568.26337724
  -exchange      EXHF   =         0.00000000
  -V(xc)+E(xc)   XCENC  =       -42.08431847
  PAW double counting   =      4181.47079836    -4019.83682819
  entropy T*S    EENTRO =        -0.00000000
  eigenvalues    EBANDS =      -527.88228484
  atomic energy  EATOM  =      1238.03527989
  Solvation  Ediel_sol  =         0.00000000
  ---------------------------------------------------
  free energy    TOTEN  =      -102.60908723 eV

  energy without entropy =     -102.60908723  energy(sigma->0) =     -102.60908723


--------------------------------------------------------------------------------------------------------




--------------------------------------- Iteration     18(   4)  ---------------------------------------


    POTLOK:  cpu time    1.7457: real time    1.7505
    SETDIJ:  cpu time    0.0080: real time    0.0076
     EDDAV:  cpu time    9.8785: real time    9.8953
       DOS:  cpu time    0.0000: real time    0.0003
    --------------------------------------------
      LOOP:  cpu time   11.6322: real time   11.6537

 eigenvalue-minimisations  :   104
 total energy-change (2. order) : 0.4817398E-06  (-0.2978083E-06)
 number of electron      56.0000021 magnetization 
 augmentation part       -3.5232691 magnetization 

 Free energy of the ion-electron system (eV)
  ---------------------------------------------------
  alpha Z        PSCENC =         1.96423985
  Ewald energy   TEWEN  =      2633.98740342
  -Hartree energ DENC   =     -3568.26969326
  -exchange      EXHF   =         0.00000000
  -V(xc)+E(xc)   XCENC  =       -42.08393681
  PAW double counting   =      4181.68981784    -4020.05597389
  entropy T*S    EENTRO =        -0.00000000
  eigenvalues    EBANDS =      -527.87622377
  atomic energy  EATOM  =      1238.03527989
  Solvation  Ediel_sol  =         0.00000000
  ---------------------------------------------------
  free energy    TOTEN  =      -102.60908675 eV

  energy without entropy =     -102.60908675  energy(sigma->0) =     -102.60908675


--------------------------------------------------------------------------------------------------------




 average (electrostatic) potential at core
  the test charge radii are     0.9892  1.1631  0.5201
  (the norm of the test charge is              1.0000)
       1 -93.2449       2 -93.3424       3 -93.3392       4 -93.3425       5 -93.4129
       6 -93.4130       7 -40.3912       8 -40.3347       9 -40.3913      10 -40.4769
      11 -40.8430      12 -40.8449      13 -40.9987      14 -40.8428      15 -40.8448
      16 -40.8416      17 -40.8410      18 -40.8727      19 -41.0058      20 -40.9707
      21 -40.9699      22 -41.0056      23 -40.8367      24 -40.8381      25 -40.8395
      26 -40.8375
 
 
 
 E-fermi :  -5.3598     XC(G=0):  -0.6037     alpha+bet : -0.3388


 k-point     1 :       0.0000    0.0000    0.0000
  band No.  band energies     occupation 
      1     -15.1454      2.00000
      2     -14.2295      2.00000
      3     -14.1182      2.00000
      4     -13.9196      2.00000
      5     -12.8982      2.00000
      6     -12.7016      2.00000
      7     -11.7758      2.00000
      8     -11.6595      2.00000
      9     -11.4975      2.00000
     10     -10.5952      2.00000
     11      -8.9794      2.00000
     12      -8.7009      2.00000
     13      -8.6813      2.00000
     14      -8.6156      2.00000
     15      -8.3016      2.00000
     16      -8.2632      2.00000
     17      -8.1517      2.00000
     18      -7.9135      2.00000
     19      -7.8754      2.00000
     20      -7.8202      2.00000
     21      -6.8535      2.00000
     22      -6.8005      2.00000
     23      -6.5026      2.00000
     24      -6.4906      2.00000
     25      -6.4174      2.00000
     26      -6.3849      2.00000
     27      -6.3681      2.00000
     28      -6.2772      2.00000
     29      -1.6262      0.00000
     30      -1.4013      0.00000
     31      -1.3942      0.00000
     32      -1.3231      0.00000
     33      -1.1667      0.00000
     34      -1.0546      0.00000
     35      -1.0363      0.00000
     36      -0.9087      0.00000
     37      -0.8675      0.00000
     38      -0.4436      0.00000
     39      -0.3578      0.00000
     40      -0.2488      0.00000
     41      -0.2346      0.00000
     42      -0.1364      0.00000


--------------------------------------------------------------------------------------------------------


 soft charge-density along one line, spin component           1
         0         1         2         3         4         5         6         7         8         9
 total charge-density along one line
 
 pseudopotential strength for first ion, spin component:           1
 19.607  27.362  -0.000   0.002   0.000  -0.001   0.004   0.000
 27.362  38.188  -0.001   0.003   0.000  -0.001   0.006   0.001
 -0.000  -0.001   4.361  -0.000  -0.000   8.135  -0.000  -0.000
  0.002   0.003  -0.000   4.362   0.000  -0.000   8.136   0.000
  0.000   0.000  -0.000   0.000   4.361  -0.000   0.000   8.135
 -0.001  -0.001   8.135  -0.000  -0.000  15.184  -0.000  -0.000
  0.004   0.006  -0.000   8.136   0.000  -0.000  15.186   0.000
  0.000   0.001  -0.000   0.000   8.135  -0.000   0.000  15.184
 total augmentation occupancy for first ion, spin component:           1
  6.087  -2.326   0.081  -0.421  -0.052  -0.025   0.131   0.016
 -2.326   0.946  -0.048   0.245   0.031   0.011  -0.060  -0.007
  0.081  -0.048   3.072  -0.114  -0.015  -0.686   0.041   0.005
 -0.421   0.245  -0.114   3.565   0.073   0.041  -0.863  -0.026
 -0.052   0.031  -0.015   0.073   3.058   0.005  -0.026  -0.681
 -0.025   0.011  -0.686   0.041   0.005   0.159  -0.012  -0.001
  0.131  -0.060   0.041  -0.863  -0.026  -0.012   0.212   0.008
  0.016  -0.007   0.005  -0.026  -0.681  -0.001   0.008   0.158


------------------------ aborting loop because EDIFF is reached ----------------------------------------


    CHARGE:  cpu time    0.4829: real time    0.4836
    FORLOC:  cpu time    0.1710: real time    0.1704
    FORNL :  cpu time    1.0718: real time    1.0734
    STRESS:  cpu time    7.8628: real time    7.8722
    FORCOR:  cpu time    1.7057: real time    1.7089
    FORHAR:  cpu time    0.5759: real time    0.5790
    MIXING:  cpu time    0.0480: real time    0.0483
    OFIELD:  cpu time    0.0000: real time    0.0000

  FORCE on cell =-STRESS in cart. coord.  units (eV):
  Direction    XX          YY          ZZ          XY          YZ          ZX
  --------------------------------------------------------------------------------------
  Alpha Z     1.96424     1.96424     1.96424
  Ewald     878.44830   876.72033   878.81707     1.15993    -2.99084     1.51639
  Hartree  1189.71238  1187.56336  1190.99798     1.70377    -2.71444     1.33675
  E(xc)    -178.04620  -178.09853  -178.05182     0.06363     0.01419    -0.00930
  Local   -2572.36180 -2568.40028 -2573.70779    -2.96663     5.70093    -2.85232
  n-local   273.20830   273.38526   272.81919    -0.21407     0.09973    -0.06466
  augment   -27.63239   -27.61582   -27.59659    -0.02184    -0.01242     0.00801
  Kinetic   433.67613   433.49502   433.83381     0.22192    -0.17510     0.11884
  Fock        0.00000     0.00000     0.00000     0.00000     0.00000     0.00000
  -------------------------------------------------------------------------------------
  Total      -1.03103    -0.98643    -0.92391    -0.05328    -0.07795     0.05372
  in kB      -0.20649    -0.19755    -0.18503    -0.01067    -0.01561     0.01076
  external pressure =       -0.20 kB  Pullay stress =        0.00 kB


 VOLUME and BASIS-vectors are now :
 -----------------------------------------------------------------------------
  energy-cutoff  :      400.00
  volume of cell :     8000.00
      direct lattice vectors                 reciprocal lattice vectors
    20.000000000  0.000000000  0.000000000     0.050000000  0.000000000  0.000000000
     0.000000000 20.000000000  0.000000000     0.000000000  0.050000000  0.000000000
     0.000000000  0.000000000 20.000000000     0.000000000  0.000000000  0.050000000

  length of vectors
    20.000000000 20.000000000 20.000000000     0.050000000  0.050000000  0.050000000


 FORCES acting on ions
    electron-ion (+dipol)            ewald-force                    non-local-force                 convergence-correction
 -----------------------------------------------------------------------------------------------
   0.123E+02 -.191E+02 0.883E+02   -.124E+02 0.193E+02 -.895E+02   0.119E+00 -.188E+00 0.119E+01   0.678E-04 -.302E-03 -.504E-03
   0.878E+02 -.479E+01 0.437E+02   -.894E+02 0.507E+01 -.453E+02   0.162E+01 -.291E+00 0.159E+01   0.113E-02 0.117E-02 -.132E-02
   -.374E+02 0.549E+02 0.733E+02   0.379E+02 -.556E+02 -.754E+02   -.497E+00 0.723E+00 0.209E+01   -.278E-03 0.296E-04 -.131E-02
   -.293E+02 -.834E+02 0.430E+02   0.296E+02 0.850E+02 -.445E+02   -.354E+00 -.162E+01 0.157E+01   -.170E-02 -.477E-03 -.128E-02
   -.852E+02 0.504E+01 -.458E+02   0.874E+02 -.515E+01 0.470E+02   -.224E+01 0.116E+00 -.121E+01   -.584E-03 -.106E-02 0.756E-03
   0.281E+02 0.811E+02 -.450E+02   -.289E+02 -.833E+02 0.462E+02   0.754E+00 0.213E+01 -.118E+01   0.110E-02 0.106E-04 0.468E-03
   0.829E+02 0.124E+02 -.417E+02   -.834E+02 -.128E+02 0.417E+02   0.509E+00 0.368E+00 0.161E-01   0.932E-03 0.204E-03 -.439E-03
   -.518E+02 0.770E+02 -.980E+01   0.520E+02 -.774E+02 0.984E+01   -.249E+00 0.370E+00 -.187E-01   0.190E-05 -.207E-03 -.487E-03
   -.425E+02 -.719E+02 -.426E+02   0.430E+02 0.722E+02 0.425E+02   -.533E+00 -.331E+00 0.867E-02   -.632E-03 -.752E-03 -.335E-03
   0.363E+02 -.532E+02 -.751E+02   -.367E+02 0.538E+02 0.759E+02   0.399E+00 -.585E+00 -.808E+00   0.399E-03 -.542E-03 -.554E-03
   0.206E+02 0.414E+02 0.634E+01   -.220E+02 -.437E+02 -.760E+01   0.134E+01 0.232E+01 0.127E+01   0.167E-03 -.845E-04 -.363E-04
   0.993E+00 0.221E+02 -.411E+02   -.626E+00 -.228E+02 0.440E+02   -.366E+00 0.631E+00 -.288E+01   0.227E-03 -.322E-04 0.156E-03
   -.261E+02 0.387E+02 -.401E+01   0.274E+02 -.407E+02 0.420E+01   -.137E+01 0.204E+01 -.195E+00   0.390E-04 -.955E-04 -.220E-04
   -.460E+02 -.341E+01 0.588E+01   0.487E+02 0.378E+01 -.712E+01   -.266E+01 -.376E+00 0.124E+01   0.803E-05 -.194E-03 0.162E-04
   -.205E+02 0.775E+01 -.412E+02   0.209E+02 -.835E+01 0.441E+02   -.419E+00 0.596E+00 -.288E+01   -.747E-04 -.225E-03 0.193E-03
   -.370E+02 0.529E+01 0.288E+02   0.396E+02 -.490E+01 -.301E+02   -.263E+01 -.389E+00 0.131E+01   -.221E-03 -.132E-03 -.251E-03
   0.882E+01 0.360E+02 0.291E+02   -.102E+02 -.383E+02 -.304E+02   0.134E+01 0.228E+01 0.134E+01   0.140E-03 0.124E-03 -.235E-03
   0.645E+01 -.101E+02 0.475E+02   -.683E+01 0.107E+02 -.503E+02   0.377E+00 -.589E+00 0.281E+01   0.555E-04 -.121E-03 0.212E-03
   -.218E+02 -.359E+02 -.201E+02   0.229E+02 0.378E+02 0.212E+02   -.114E+01 -.191E+01 -.106E+01   -.383E-04 0.587E-05 0.106E-03
   0.257E+01 -.337E+01 -.443E+02   -.227E+01 0.290E+01 0.467E+02   -.300E+00 0.471E+00 -.245E+01   0.138E-03 -.190E-03 -.354E-04
   0.243E+02 -.360E+02 -.107E+02   -.257E+02 0.380E+02 0.105E+02   0.140E+01 -.208E+01 0.200E+00   0.276E-05 0.103E-04 -.249E-03
   0.415E+02 0.666E+01 -.197E+02   -.438E+02 -.701E+01 0.207E+02   0.221E+01 0.343E+00 -.103E+01   0.934E-05 0.179E-04 0.873E-04
   0.320E+02 0.247E+02 0.241E+02   -.334E+02 -.270E+02 -.254E+02   0.141E+01 0.222E+01 0.136E+01   0.165E-03 0.927E-04 -.320E-03
   0.350E+02 -.290E+02 0.118E+02   -.367E+02 0.315E+02 -.121E+02   0.167E+01 -.243E+01 0.298E+00   0.129E-03 0.286E-03 -.285E-03
   0.135E+02 -.434E+02 0.117E+02   -.151E+02 0.459E+02 -.120E+02   0.162E+01 -.247E+01 0.298E+00   -.338E-03 0.154E-04 -.278E-03
   -.352E+02 -.205E+02 0.236E+02   0.378E+02 0.210E+02 -.249E+02   -.259E+01 -.473E+00 0.133E+01   -.174E-03 -.734E-04 -.323E-03
 -----------------------------------------------------------------------------------------------
   0.600E+00 -.863E+00 -.420E+01   -.142E-13 -.178E-13 -.426E-13   -.601E+00 0.865E+00 0.421E+01   0.664E-03 -.252E-02 -.627E-02
 
 
 POSITION                                       TOTAL-FORCE (eV/Angst)
 -----------------------------------------------------------------------------------
      9.51102     11.12250      7.70892        -0.009399      0.013807     -0.010451
      7.40560     10.78066      8.70417        -0.000637     -0.005547      0.004809
     10.81607      9.17832      7.91913         0.001800     -0.000266      0.006585
     10.61392     12.93644      8.72560         0.006503     -0.002209      0.004525
     12.28703     10.49343     11.30911        -0.001484      0.000414     -0.006046
      9.01160      8.29231     11.28714         0.001098      0.002244     -0.004151
      7.66277     10.26443     11.03860         0.007309     -0.002150     -0.006830
     11.14566      8.66484     10.24438        -0.005451      0.007906      0.012715
     10.97328     12.48906     11.06074        -0.000886     -0.007591     -0.006862
      8.79304     12.14721     12.13666         0.002410     -0.003626     -0.001545
      8.33266      7.12184     10.64298         0.005770      0.008886      0.001818
      9.19688      7.97591     12.73896         0.001122     -0.001274      0.006403
     12.01375      7.37192     10.36823         0.000698     -0.000929      0.000056
     13.63339     10.68357     10.67875        -0.011245     -0.002146      0.002523
     12.49613     10.19337     12.76105         0.000519     -0.001794      0.007574
     12.14458      9.37772      7.25593         0.004710      0.004398      0.001151
     10.13606      8.02753      7.24273        -0.006583     -0.003713      0.000496
      9.31484     11.42896      6.25031        -0.001350      0.002012     -0.003809
     11.69976     13.70044     11.72899        -0.001829     -0.007337     -0.007946
      8.97910     11.85490     13.65554         0.000446     -0.000783     -0.002943
      7.92749     13.43678     12.01227         0.003464     -0.005012     -0.000375
      6.26055     10.04548     11.69251         0.007461     -0.000948     -0.007751
      6.69501      9.65481      8.01473         0.008709      0.004048      0.004045
      6.56335     12.01070      8.55496         0.000183      0.005723      0.000880
      9.79469     14.18179      8.57618        -0.005581      0.002722      0.000589
     11.93117     13.17309      8.04977        -0.007759     -0.006833      0.004541
 -----------------------------------------------------------------------------------
    total drift:                               -0.000001     -0.000369     -0.000381


--------------------------------------------------------------------------------------------------------



  FREE ENERGIE OF THE ION-ELECTRON SYSTEM (eV)
  ---------------------------------------------------
  free  energy   TOTEN  =      -102.60908675 eV

  energy  without entropy=     -102.60908675  energy(sigma->0) =     -102.60908675
 
 d Force = 0.1061448E-03[-0.101E-04, 0.222E-03]  d Energy = 0.1062743E-03-0.129E-06
 d Force =-0.1901453E+00[-0.190E+00,-0.190E+00]  d Ewald  =-0.1901453E+00-0.496E-07


--------------------------------------------------------------------------------------------------------


    POTLOK:  cpu time    1.7297: real time    1.7305


--------------------------------------------------------------------------------------------------------


 Conjugate gradient step on ions:
 trial-energy change:   -0.000106  1 .order   -0.000106   -0.000222    0.000010
  (g-gl).g = 0.181E-03      g.g   = 0.179E-03  gl.gl    = 0.479E-03
 g(Force)  = 0.179E-03   g(Stress)= 0.000E+00 ortho     = 0.219E-05
 gamma     =   0.37729
 trial     =   1.23685
 opt step  =   1.18322  (harmonic =   1.18322) maximal distance =0.00133527
 next E    =  -102.609087   (d E  =  -0.00011)


--------------------------------------------------------------------------------------------------------


  
 reached required accuracy - stopping structural energy minimisation
 writing wavefunctions
     LOOP+:  cpu time   63.2344: real time   63.7591
    4ORBIT:  cpu time    0.0000: real time    0.0000

 total amount of memory used by VASP MPI-rank0   131440. kBytes
=======================================================================

   base      :      30000. kBytes
   nonl-proj :      17624. kBytes
   fftplans  :      26957. kBytes
   grid      :      48673. kBytes
   one-center:         40. kBytes
   wavefun   :       8146. kBytes
 
  
  
 General timing and accounting informations for this job:
 ========================================================
  
                  Total CPU time used (sec):     2357.495
                            User time (sec):     2328.092
                          System time (sec):       29.403
                         Elapsed time (sec):     2364.113
  
                   Maximum memory used (kb):      184936.
                   Average memory used (kb):           0.
  
                          Minor page faults:      5628878
                          Major page faults:            5
                 Voluntary context switches:         2456
