 vasp.5.4.4.18Apr17-6-g9f103f2a35 (build Nov 06 2017 19:16:10) complex          
  
 executed on           IFC91_ompi date 2018.07.11  02:02:20
 running on   12 total cores
 distrk:  each k-point on   12 cores,    1 groups
 distr:  one band on NCORES_PER_BAND=   6 cores,    2 groups


--------------------------------------------------------------------------------------------------------


 INCAR:
 POTCAR:    PAW_PBE Si 05Jan2001                  
 POTCAR:    PAW_PBE Ge 05Jan2001                  
 POTCAR:    PAW_PBE H 15Jun2001                   
 POTCAR:    PAW_PBE Si 05Jan2001                  
   VRHFIN =Si: s2p2                                                             
   LEXCH  = PE                                                                  
   EATOM  =   103.0669 eV,    7.5752 Ry                                         
                                                                                
   TITEL  = PAW_PBE Si 05Jan2001                                                
   LULTRA =        F    use ultrasoft PP ?                                      
   IUNSCR =        1    unscreen: 0-lin 1-nonlin 2-no                           
   RPACOR =    1.500    partial core radius                                     
   POMASS =   28.085; ZVAL   =    4.000    mass and valenz                      
   RCORE  =    1.900    outmost cutoff radius                                   
   RWIGS  =    2.480; RWIGS  =    1.312    wigner-seitz radius (au A)           
   ENMAX  =  245.345; ENMIN  =  184.009 eV                                      
   ICORE  =        2    local potential                                         
   LCOR   =        T    correct aug charges                                     
   LPAW   =        T    paw PP                                                  
   EAUG   =  322.069                                                            
   DEXC   =    0.000                                                            
   RMAX   =    1.950    core radius for proj-oper                               
   RAUG   =    1.300    factor for augmentation sphere                          
   RDEP   =    1.993    radius for radial grids                                 
   RDEPT  =    1.837    core radius for aug-charge                              
                                                                                
   Atomic configuration                                                         
    6 entries                                                                   
     n  l   j            E        occ.                                          
     1  0  0.50     -1785.8828   2.0000                                         
     2  0  0.50      -139.4969   2.0000                                         
     2  1  1.50       -95.5546   6.0000                                         
     3  0  0.50       -10.8127   2.0000                                         
     3  1  0.50        -4.0811   2.0000                                         
     3  2  1.50        -4.0817   0.0000                                         
   Description                                                                  
     l       E           TYP  RCUT    TYP  RCUT                                 
     0    -10.8127223     23  1.900                                             
     0     -7.6451159     23  1.900                                             
     1     -4.0811372     23  1.900                                             
     1      2.4879257     23  1.900                                             
     2     -4.0817478      7  1.900                                             
  local pseudopotential read in
  partial core-charges read in
  partial kinetic energy density read in
  atomic valenz-charges read in
  non local Contribution for L=           0  read in
    real space projection operators read in
  non local Contribution for L=           0  read in
    real space projection operators read in
  non local Contribution for L=           1  read in
    real space projection operators read in
  non local Contribution for L=           1  read in
    real space projection operators read in
    PAW grid and wavefunctions read in
 
   number of l-projection  operators is LMAX  =           4
   number of lm-projection operators is LMMAX =           8
 
 POTCAR:    PAW_PBE Ge 05Jan2001                  
   VRHFIN =Ge: s2p2                                                             
   LEXCH  = PE                                                                  
   EATOM  =   104.9960 eV,    7.7170 Ry                                         
                                                                                
   TITEL  = PAW_PBE Ge 05Jan2001                                                
   LULTRA =        F    use ultrasoft PP ?                                      
   IUNSCR =        1    unscreen: 0-lin 1-nonlin 2-no                           
   RPACOR =    2.170    partial core radius                                     
   POMASS =   72.610; ZVAL   =    4.000    mass and valenz                      
   RCORE  =    2.300    outmost cutoff radius                                   
   RWIGS  =    2.300; RWIGS  =    1.217    wigner-seitz radius (au A)           
   ENMAX  =  173.807; ENMIN  =  130.355 eV                                      
   ICORE  =        3    local potential                                         
   LCOR   =        T    correct aug charges                                     
   LPAW   =        T    paw PP                                                  
   EAUG   =  385.843                                                            
   DEXC   =    0.000                                                            
   RMAX   =    2.342    core radius for proj-oper                               
   RAUG   =    1.300    factor for augmentation sphere                          
   RDEP   =    2.318    radius for radial grids                                 
   RDEPT  =    2.103    core radius for aug-charge                              
                                                                                
   Atomic configuration                                                         
   10 entries                                                                   
     n  l   j            E        occ.                                          
     1  0  0.50    -10959.8463   2.0000                                         
     2  0  0.50     -1371.6056   2.0000                                         
     2  1  1.50     -1198.4791   6.0000                                         
     3  0  0.50      -168.4733   2.0000                                         
     3  1  1.50      -115.6019   6.0000                                         
     3  2  2.50       -29.3106  10.0000                                         
     4  0  0.50       -11.7309   2.0000                                         
     4  1  0.50        -3.8952   2.0000                                         
     4  2  1.50        -4.0817   0.0000                                         
     4  3  2.50        -4.0817   0.0000                                         
   Description                                                                  
     l       E           TYP  RCUT    TYP  RCUT                                 
     0    -11.7309493     23  2.300                                             
     0     -7.4578696     23  2.300                                             
     1     -3.8952261     23  2.300                                             
     1      6.1178114     23  2.300                                             
     2     -4.0817478     23  2.300                                             
     3     -1.3605826      7  2.300                                             
  local pseudopotential read in
  partial core-charges read in
  partial kinetic energy density read in
  atomic valenz-charges read in
  non local Contribution for L=           0  read in
    real space projection operators read in
  non local Contribution for L=           0  read in
    real space projection operators read in
  non local Contribution for L=           1  read in
    real space projection operators read in
  non local Contribution for L=           1  read in
    real space projection operators read in
  non local Contribution for L=           2  read in
    real space projection operators read in
    PAW grid and wavefunctions read in
 
   number of l-projection  operators is LMAX  =           5
   number of lm-projection operators is LMMAX =          13
 
 POTCAR:    PAW_PBE H 15Jun2001                   
   VRHFIN =H: ultrasoft test                                                    
   LEXCH  = PE                                                                  
   EATOM  =    12.4884 eV,    0.9179 Ry                                         
                                                                                
   TITEL  = PAW_PBE H 15Jun2001                                                 
   LULTRA =        F    use ultrasoft PP ?                                      
   IUNSCR =        0    unscreen: 0-lin 1-nonlin 2-no                           
   RPACOR =    0.000    partial core radius                                     
   POMASS =    1.000; ZVAL   =    1.000    mass and valenz                      
   RCORE  =    1.100    outmost cutoff radius                                   
   RWIGS  =    0.700; RWIGS  =    0.370    wigner-seitz radius (au A)           
   ENMAX  =  250.000; ENMIN  =  200.000 eV                                      
   RCLOC  =    0.701    cutoff for local pot                                    
   LCOR   =        T    correct aug charges                                     
   LPAW   =        T    paw PP                                                  
   EAUG   =  400.000                                                            
   RMAX   =    1.123    core radius for proj-oper                               
   RAUG   =    1.200    factor for augmentation sphere                          
   RDEP   =    1.112    radius for radial grids                                 
   RDEPT  =    0.926    core radius for aug-charge                              
                                                                                
   Atomic configuration                                                         
    2 entries                                                                   
     n  l   j            E        occ.                                          
     1  0  0.50        -6.4927   1.0000                                         
     2  1  0.50        -3.4015   0.0000                                         
   Description                                                                  
     l       E           TYP  RCUT    TYP  RCUT                                 
     0     -6.4927494     23  1.100                                             
     0      6.8029130     23  1.100                                             
     1     -4.0817478     23  1.100                                             
  local pseudopotential read in
  atomic valenz-charges read in
  non local Contribution for L=           0  read in
    real space projection operators read in
  non local Contribution for L=           0  read in
    real space projection operators read in
  non local Contribution for L=           1  read in
    real space projection operators read in
    PAW grid and wavefunctions read in
 
   number of l-projection  operators is LMAX  =           3
   number of lm-projection operators is LMMAX =           5
 

 ----------------------------------------------------------------------------- 
|                                                                             |
|  ADVICE TO THIS USER RUNNING 'VASP/VAMP'   (HEAR YOUR MASTER'S VOICE ...):  |
|                                                                             |
|      You have a (more or less) 'large supercell' and for larger cells       |
|      it might be more efficient to use real space projection opertators     |
|      So try LREAL= Auto  in the INCAR   file.                               |
|      Mind:          For very  accurate calculation you might also keep the  |
|      reciprocal projection scheme          (i.e. LREAL=.FALSE.)             |
|                                                                             |
 ----------------------------------------------------------------------------- 

  PAW_PBE Si 05Jan2001                  :
 energy of atom  1       EATOM= -103.0669
 kinetic energy error for atom=    0.0012 (will be added to EATOM!!)
  PAW_PBE Ge 05Jan2001                  :
 energy of atom  2       EATOM= -104.9960
 kinetic energy error for atom=    0.0003 (will be added to EATOM!!)
  PAW_PBE H 15Jun2001                   :
 energy of atom  3       EATOM=  -12.4884
 kinetic energy error for atom=    0.0098 (will be added to EATOM!!)
 
 
 POSCAR: SiGeH16                                 
  positions in direct lattice
  No initial velocities read in
 exchange correlation table for  LEXCH =        8
   RHO(1)=    0.500       N(1)  =     2000
   RHO(2)=  100.500       N(2)  =     4000
 


--------------------------------------------------------------------------------------------------------


 ion  position               nearest neighbor table
   1  0.475  0.556  0.385-  18 1.55   7 2.39   2 2.39   3 2.39
   2  0.369  0.539  0.436-  23 1.55  24 1.55   4 2.39   1 2.39
   3  0.542  0.457  0.396-  17 1.55  16 1.55   8 2.39   1 2.39
   4  0.385  0.515  0.552-  22 1.55  10 2.39   9 2.39   2 2.39
   5  0.547  0.624  0.554-  19 1.55   7 2.39   6 2.39  10 2.39
   6  0.613  0.525  0.565-  15 1.55  14 1.55   5 2.39   8 2.39
   7  0.531  0.648  0.437-  25 1.55  26 1.55   5 2.39   1 2.39
   8  0.557  0.433  0.512-  13 1.55   3 2.39   6 2.39   9 2.39
   9  0.451  0.416  0.564-  12 1.55  11 1.55   4 2.39   8 2.39
  10  0.440  0.606  0.605-  20 1.55  21 1.55   4 2.39   5 2.39
  11  0.415  0.357  0.529-   9 1.55
  12  0.461  0.400  0.639-   9 1.55
  13  0.600  0.369  0.520-   8 1.55
  14  0.682  0.536  0.531-   6 1.55
  15  0.623  0.509  0.640-   6 1.55
  16  0.611  0.469  0.363-   3 1.55
  17  0.506  0.398  0.362-   3 1.55
  18  0.465  0.572  0.309-   1 1.55
  19  0.583  0.683  0.588-   5 1.55
  20  0.451  0.590  0.680-  10 1.55
  21  0.397  0.670  0.598-  10 1.55
  22  0.316  0.504  0.586-   4 1.55
  23  0.333  0.479  0.402-   2 1.55
  24  0.326  0.603  0.429-   2 1.55
  25  0.488  0.712  0.430-   7 1.55
  26  0.600  0.659  0.404-   7 1.55
 
  LATTYP: Found a simple cubic cell.
 ALAT       =    20.0000000000
  
  Lattice vectors:
  
 A1 = (  20.0000000000,   0.0000000000,   0.0000000000)
 A2 = (   0.0000000000,  20.0000000000,   0.0000000000)
 A3 = (   0.0000000000,   0.0000000000,  20.0000000000)


Analysis of symmetry for initial positions (statically):
=====================================================================
 Subroutine PRICEL returns:
 Original cell was already a primitive cell.
 

 Routine SETGRP: Setting up the symmetry group for a 
 simple cubic supercell.


 Subroutine GETGRP returns: Found  1 space group operations
 (whereof  1 operations were pure point group operations)
 out of a pool of 48 trial point group operations.


The static configuration has the point symmetry C_1 .


Analysis of symmetry for dynamics (positions and initial velocities):
=====================================================================
 Subroutine PRICEL returns:
 Original cell was already a primitive cell.
 

 Routine SETGRP: Setting up the symmetry group for a 
 simple cubic supercell.


 Subroutine GETGRP returns: Found  1 space group operations
 (whereof  1 operations were pure point group operations)
 out of a pool of 48 trial point group operations.


The dynamic configuration has the point symmetry C_1 .


 Subroutine INISYM returns: Found  1 space group operations
 (whereof  1 operations are pure point group operations),
 and found     1 'primitive' translations

 
 
 KPOINTS: Automatic mesh                          

Automatic generation of k-mesh.
Space group operators:
 irot       det(A)        alpha          n_x          n_y          n_z        tau_x        tau_y        tau_z
    1     1.000000     0.000000     1.000000     0.000000     0.000000     0.000000     0.000000     0.000000
 
 Subroutine IBZKPT returns following result:
 ===========================================
 
 Found      1 irreducible k-points:
 
 Following reciprocal coordinates:
            Coordinates               Weight
  0.000000  0.000000  0.000000      1.000000
 
 Following cartesian coordinates:
            Coordinates               Weight
  0.000000  0.000000  0.000000      1.000000
 


--------------------------------------------------------------------------------------------------------




 Dimension of arrays:
   k-points           NKPTS =      1   k-points in BZ     NKDIM =      1   number of bands    NBANDS=     42
   number of dos      NEDOS =    301   number of ions     NIONS =     26
   non local maximal  LDIM  =      5   non local SUM 2l+1 LMDIM =     13
   total plane-waves  NPLWV = 941192
   max r-space proj   IRMAX =      1   max aug-charges    IRDMAX=   6593
   dimension x,y,z NGX =    98 NGY =   98 NGZ =   98
   dimension x,y,z NGXF=   196 NGYF=  196 NGZF=  196
   support grid    NGXF=   196 NGYF=  196 NGZF=  196
   ions per type =               6   4  16
   NGX,Y,Z   is equivalent  to a cutoff of   8.15,  8.15,  8.15 a.u.
   NGXF,Y,Z  is equivalent  to a cutoff of  16.29, 16.29, 16.29 a.u.

 SYSTEM =  SiGe                                    
 POSCAR =  SiGeH16                                 

 Startparameter for this run:
   NWRITE =      2    write-flag & timer
   PREC   = normal    normal or accurate (medium, high low for compatibility)
   ISTART =      0    job   : 0-new  1-cont  2-samecut
   ICHARG =      2    charge: 1-file 2-atom 10-const
   ISPIN  =      1    spin polarized calculation?
   LNONCOLLINEAR =      F non collinear calculations
   LSORBIT =      F    spin-orbit coupling
   INIWAV =      1    electr: 0-lowe 1-rand  2-diag
   LASPH  =      F    aspherical Exc in radial PAW
   METAGGA=      F    non-selfconsistent MetaGGA calc.

 Electronic Relaxation 1
   ENCUT  =  400.0 eV  29.40 Ry    5.42 a.u.  32.61 32.61 32.61*2*pi/ulx,y,z
   ENINI  =  400.0     initial cutoff
   ENAUG  =  400.0 eV  augmentation charge cutoff
   NELM   =     60;   NELMIN=  2; NELMDL= -5     # of ELM steps 
   EDIFF  = 0.1E-05   stopping-criterion for ELM
   LREAL  =      F    real-space projection
   NLSPLINE    = F    spline interpolate recip. space projectors
   LCOMPAT=      F    compatible to vasp.4.4
   GGA_COMPAT  = T    GGA compatible to vasp.4.4-vasp.4.6
   LMAXPAW     = -100 max onsite density
   LMAXMIX     =    2 max onsite mixed and CHGCAR
   VOSKOWN=      0    Vosko Wilk Nusair interpolation
   ROPT   =    0.00000   0.00000   0.00000
 Ionic relaxation
   EDIFFG = -.2E-01   stopping-criterion for IOM
   NSW    =    200    number of steps for IOM
   NBLOCK =      1;   KBLOCK =    200    inner block; outer block 
   IBRION =      2    ionic relax: 0-MD 1-quasi-New 2-CG
   NFREE  =      1    steps in history (QN), initial steepest desc. (CG)
   ISIF   =      2    stress and relaxation
   IWAVPR =     11    prediction:  0-non 1-charg 2-wave 3-comb
   ISYM   =      2    0-nonsym 1-usesym 2-fastsym
   LCORR  =      T    Harris-Foulkes like correction to forces

   POTIM  = 0.5000    time-step for ionic-motion
   TEIN   =    0.0    initial temperature
   TEBEG  =    0.0;   TEEND  =   0.0 temperature during run
   SMASS  =  -3.00    Nose mass-parameter (am)
   estimated Nose-frequenzy (Omega)   =  0.10E-29 period in steps =****** mass=  -0.914E-26a.u.
   SCALEE = 1.0000    scale energy and forces
   NPACO  =    256;   APACO  = 16.0  distance and # of slots for P.C.
   PSTRESS=    0.0 pullay stress

  Mass of Ions in am
   POMASS =  28.09 72.61  1.00
  Ionic Valenz
   ZVAL   =   4.00  4.00  1.00
  Atomic Wigner-Seitz radii
   RWIGS  =  -1.00 -1.00 -1.00
  virtual crystal weights 
   VCA    =   1.00  1.00  1.00
   NELECT =      56.0000    total number of electrons
   NUPDOWN=      -1.0000    fix difference up-down

 DOS related values:
   EMIN   =  10.00;   EMAX   =-10.00  energy-range for DOS
   EFERMI =   0.00
   ISMEAR =     0;   SIGMA  =   0.20  broadening in eV -4-tet -1-fermi 0-gaus

 Electronic relaxation 2 (details)
   IALGO  =     38    algorithm
   LDIAG  =      T    sub-space diagonalisation (order eigenvalues)
   LSUBROT=      F    optimize rotation matrix (better conditioning)
   TURBO    =      0    0=normal 1=particle mesh
   IRESTART =      0    0=no restart 2=restart with 2 vectors
   NREBOOT  =      0    no. of reboots
   NMIN     =      0    reboot dimension
   EREF     =   0.00    reference energy to select bands
   IMIX   =      4    mixing-type and parameters
     AMIX     =   0.40;   BMIX     =  1.00
     AMIX_MAG =   1.60;   BMIX_MAG =  1.00
     AMIN     =   0.10
     WC   =   100.;   INIMIX=   1;  MIXPRE=   1;  MAXMIX= -45

 Intra band minimization:
   WEIMIN = 0.0010     energy-eigenvalue tresh-hold
   EBREAK =  0.60E-08  absolut break condition
   DEPER  =   0.30     relativ break condition  

   TIME   =   0.40     timestep for ELM

  volume/ion in A,a.u.               =     307.69      2076.41
  Fermi-wavevector in a.u.,A,eV,Ry     =   0.313166  0.591797  1.334361  0.098073
  Thomas-Fermi vector in A             =   1.193276
 
 Write flags
   LWAVE        =      T    write WAVECAR
   LDOWNSAMPLE  =      F    k-point downsampling of WAVECAR
   LCHARG       =      T    write CHGCAR
   LVTOT        =      F    write LOCPOT, total local potential
   LVHAR        =      F    write LOCPOT, Hartree potential only
   LELF         =      F    write electronic localiz. function (ELF)
   LORBIT       =      0    0 simple, 1 ext, 2 COOP (PROOUT), +10 PAW based schemes


 Dipole corrections
   LMONO  =      F    monopole corrections only (constant potential shift)
   LDIPOL =      F    correct potential (dipole corrections)
   IDIPOL =      0    1-x, 2-y, 3-z, 4-all directions 
   EPSILON=  1.0000000 bulk dielectric constant

 Exchange correlation treatment:
   GGA     =    --    GGA type
   LEXCH   =     8    internal setting for exchange type
   VOSKOWN=      0    Vosko Wilk Nusair interpolation
   LHFCALC =     F    Hartree Fock is set to
   LHFONE  =     F    Hartree Fock one center treatment
   AEXX    =    0.0000 exact exchange contribution

 Linear response parameters
   LEPSILON=     F    determine dielectric tensor
   LRPA    =     F    only Hartree local field effects (RPA)
   LNABLA  =     F    use nabla operator in PAW spheres
   LVEL    =     F    velocity operator in full k-point grid
   LINTERFAST=   F  fast interpolation
   KINTER  =     0    interpolate to denser k-point grid
   CSHIFT  =0.1000    complex shift for real part using Kramers Kronig
   OMEGAMAX=  -1.0    maximum frequency
   DEG_THRESHOLD= 0.2000000E-02 threshold for treating states as degnerate
   RTIME   =   -0.100 relaxation time in fs
  (WPLASMAI=    0.000 imaginary part of plasma frequency in eV, 0.658/RTIME)
   DFIELD  = 0.0000000 0.0000000 0.0000000 field for delta impulse in time
 
 Orbital magnetization related:
   ORBITALMAG=     F  switch on orbital magnetization
   LCHIMAG   =     F  perturbation theory with respect to B field
   DQ        =  0.001000  dq finite difference perturbation B field
   LLRAUG    =     F  two centre corrections for induced B field



--------------------------------------------------------------------------------------------------------


 conjugate gradient relaxation of ions
 charge density and potential will be updated during run
 non-spin polarized calculation
 Variant of blocked Davidson
 Davidson routine will perform the subspace rotation
 perform sub-space diagonalisation
    after iterative eigenvector-optimisation
 modified Broyden-mixing scheme, WC =      100.0
 initial mixing is a Kerker type mixing with AMIX =  0.4000 and BMIX =      1.0000
 Hartree-type preconditioning will be used
 using additional bands           14
 reciprocal scheme for non local part
 use partial core corrections
 calculate Harris-corrections to forces 
   (improved forces if not selfconsistent)
 use gradient corrections 
 use of overlap-Matrix (Vanderbilt PP)
 Gauss-broadening in eV      SIGMA  =   0.20


--------------------------------------------------------------------------------------------------------


  energy-cutoff  :      400.00
  volume of cell :     8000.00
      direct lattice vectors                 reciprocal lattice vectors
    20.000000000  0.000000000  0.000000000     0.050000000  0.000000000  0.000000000
     0.000000000 20.000000000  0.000000000     0.000000000  0.050000000  0.000000000
     0.000000000  0.000000000 20.000000000     0.000000000  0.000000000  0.050000000

  length of vectors
    20.000000000 20.000000000 20.000000000     0.050000000  0.050000000  0.050000000


 
 k-points in units of 2pi/SCALE and weight: Automatic mesh                          
   0.00000000  0.00000000  0.00000000       1.000
 
 k-points in reciprocal lattice and weights: Automatic mesh                          
   0.00000000  0.00000000  0.00000000       1.000
 
 position of ions in fractional coordinates (direct lattice) 
   0.47547100  0.55626000  0.38465300
   0.36907800  0.53906000  0.43641200
   0.54179100  0.45744600  0.39613600
   0.38461900  0.51474100  0.55243500
   0.54669200  0.62364400  0.55351800
   0.61299700  0.52481700  0.56496600
   0.53111600  0.64794100  0.43749600
   0.55736800  0.43311000  0.51215000
   0.45095700  0.41593600  0.56388300
   0.44028400  0.60643000  0.60524300
   0.41490100  0.35665000  0.52940300
   0.46117000  0.40042600  0.63910800
   0.60034800  0.36907000  0.51957800
   0.68182700  0.53600700  0.53118700
   0.62280400  0.50903400  0.64018900
   0.61080000  0.46880600  0.36278200
   0.50550800  0.39805500  0.36207700
   0.46538400  0.57201900  0.30946400
   0.58275500  0.68306700  0.58775000
   0.45052500  0.59044300  0.68036400
   0.39732000  0.67044900  0.59753500
   0.31566200  0.50359800  0.58596500
   0.33322800  0.47946500  0.40225200
   0.32629100  0.60324700  0.42912600
   0.48792300  0.71185500  0.43020800
   0.60015100  0.65882400  0.40403700
 
 position of ions in cartesian coordinates  (Angst):
   9.50942000 11.12520000  7.69306000
   7.38156000 10.78120000  8.72824000
  10.83582000  9.14892000  7.92272000
   7.69238000 10.29482000 11.04870000
  10.93384000 12.47288000 11.07036000
  12.25994000 10.49634000 11.29932000
  10.62232000 12.95882000  8.74992000
  11.14736000  8.66220000 10.24300000
   9.01914000  8.31872000 11.27766000
   8.80568000 12.12860000 12.10486000
   8.29802000  7.13300000 10.58806000
   9.22340000  8.00852000 12.78216000
  12.00696000  7.38140000 10.39156000
  13.63654000 10.72014000 10.62374000
  12.45608000 10.18068000 12.80378000
  12.21600000  9.37612000  7.25564000
  10.11016000  7.96110000  7.24154000
   9.30768000 11.44038000  6.18928000
  11.65510000 13.66134000 11.75500000
   9.01050000 11.80886000 13.60728000
   7.94640000 13.40898000 11.95070000
   6.31324000 10.07196000 11.71930000
   6.66456000  9.58930000  8.04504000
   6.52582000 12.06494000  8.58252000
   9.75846000 14.23710000  8.60416000
  12.00302000 13.17648000  8.08074000
 


--------------------------------------------------------------------------------------------------------


 k-point  1 :   0.0000 0.0000 0.0000  plane waves:  145165

 maximum and minimum number of plane-waves per node :     24209    24180

 maximum number of plane-waves:    145165
 maximum index in each direction: 
   IXMAX=   32   IYMAX=   32   IZMAX=   32
   IXMIN=  -32   IYMIN=  -32   IZMIN=  -32


 parallel 3D FFT for wavefunctions:
    minimum data exchange during FFTs selected (reduces bandwidth)
 parallel 3D FFT for charge:
    minimum data exchange during FFTs selected (reduces bandwidth)


 total amount of memory used by VASP MPI-rank0   131440. kBytes
=======================================================================

   base      :      30000. kBytes
   nonl-proj :      17624. kBytes
   fftplans  :      26957. kBytes
   grid      :      48673. kBytes
   one-center:         40. kBytes
   wavefun   :       8146. kBytes
 
     INWAV:  cpu time    0.0000: real time    0.0000
 Broyden mixing: mesh for mixing (old mesh)
   NGX = 65   NGY = 65   NGZ = 65
  (NGX  =196   NGY  =196   NGZ  =196)
  gives a total of 274625 points

 initial charge density was supplied:
 charge density of overlapping atoms calculated
 number of electron      56.0000000 magnetization 
 keeping initial charge density in first step


--------------------------------------------------------------------------------------------------------


 Maximum index for augmentation-charges          565 (set IRDMAX)


--------------------------------------------------------------------------------------------------------


 First call to EWALD:  gamma=   0.089
 Maximum number of real-space cells 3x 3x 3
 Maximum number of reciprocal cells 3x 3x 3

    FEWALD:  cpu time    0.0030: real time    0.0031


--------------------------------------- Iteration      1(   1)  ---------------------------------------


    POTLOK:  cpu time    1.7617: real time    1.7738
    SETDIJ:  cpu time    0.0070: real time    0.0075
     EDDAV:  cpu time   10.8573: real time   10.8548
       DOS:  cpu time    0.0010: real time    0.0006
    --------------------------------------------
      LOOP:  cpu time   12.6271: real time   12.6367

 eigenvalue-minimisations  :   116
 total energy-change (2. order) : 0.2010986E+03  (-0.1049102E+04)
 number of electron      56.0000000 magnetization 
 augmentation part       56.0000000 magnetization 

 Free energy of the ion-electron system (eV)
  ---------------------------------------------------
  alpha Z        PSCENC =         1.96423985
  Ewald energy   TEWEN  =      2629.98113996
  -Hartree energ DENC   =     -3442.44026206
  -exchange      EXHF   =         0.00000000
  -V(xc)+E(xc)   XCENC  =       -53.18700636
  PAW double counting   =       915.46801746     -752.10009045
  entropy T*S    EENTRO =        -0.43857426
  eigenvalues    EBANDS =      -336.18409717
  atomic energy  EATOM  =      1238.03527989
  Solvation  Ediel_sol  =         0.00000000
  ---------------------------------------------------
  free energy    TOTEN  =       201.09864686 eV

  energy without entropy =      201.53722112  energy(sigma->0) =      201.31793399


--------------------------------------------------------------------------------------------------------




--------------------------------------- Iteration      1(   2)  ---------------------------------------


     EDDAV:  cpu time   12.3711: real time   12.3694
       DOS:  cpu time    0.0010: real time    0.0004
    --------------------------------------------
      LOOP:  cpu time   12.3721: real time   12.3698

 eigenvalue-minimisations  :   136
 total energy-change (2. order) :-0.2281663E+03  (-0.2139392E+03)
 number of electron      56.0000000 magnetization 
 augmentation part       56.0000000 magnetization 

 Free energy of the ion-electron system (eV)
  ---------------------------------------------------
  alpha Z        PSCENC =         1.96423985
  Ewald energy   TEWEN  =      2629.98113996
  -Hartree energ DENC   =     -3442.44026206
  -exchange      EXHF   =         0.00000000
  -V(xc)+E(xc)   XCENC  =       -53.18700636
  PAW double counting   =       915.46801746     -752.10009045
  entropy T*S    EENTRO =        -0.00000000
  eigenvalues    EBANDS =      -564.78894784
  atomic energy  EATOM  =      1238.03527989
  Solvation  Ediel_sol  =         0.00000000
  ---------------------------------------------------
  free energy    TOTEN  =       -27.06762955 eV

  energy without entropy =      -27.06762955  energy(sigma->0) =      -27.06762955


--------------------------------------------------------------------------------------------------------




--------------------------------------- Iteration      1(   3)  ---------------------------------------


     EDDAV:  cpu time   11.2913: real time   11.2884
       DOS:  cpu time    0.0000: real time    0.0004
    --------------------------------------------
      LOOP:  cpu time   11.2913: real time   11.2888

 eigenvalue-minimisations  :   112
 total energy-change (2. order) :-0.7556475E+02  (-0.7538091E+02)
 number of electron      56.0000000 magnetization 
 augmentation part       56.0000000 magnetization 

 Free energy of the ion-electron system (eV)
  ---------------------------------------------------
  alpha Z        PSCENC =         1.96423985
  Ewald energy   TEWEN  =      2629.98113996
  -Hartree energ DENC   =     -3442.44026206
  -exchange      EXHF   =         0.00000000
  -V(xc)+E(xc)   XCENC  =       -53.18700636
  PAW double counting   =       915.46801746     -752.10009045
  entropy T*S    EENTRO =        -0.00000000
  eigenvalues    EBANDS =      -640.35370001
  atomic energy  EATOM  =      1238.03527989
  Solvation  Ediel_sol  =         0.00000000
  ---------------------------------------------------
  free energy    TOTEN  =      -102.63238171 eV

  energy without entropy =     -102.63238171  energy(sigma->0) =     -102.63238171


--------------------------------------------------------------------------------------------------------




--------------------------------------- Iteration      1(   4)  ---------------------------------------


     EDDAV:  cpu time    9.9985: real time    9.9958
       DOS:  cpu time    0.0000: real time    0.0004
    --------------------------------------------
      LOOP:  cpu time    9.9985: real time    9.9962

 eigenvalue-minimisations  :   104
 total energy-change (2. order) :-0.4342889E+01  (-0.4325585E+01)
 number of electron      56.0000000 magnetization 
 augmentation part       56.0000000 magnetization 

 Free energy of the ion-electron system (eV)
  ---------------------------------------------------
  alpha Z        PSCENC =         1.96423985
  Ewald energy   TEWEN  =      2629.98113996
  -Hartree energ DENC   =     -3442.44026206
  -exchange      EXHF   =         0.00000000
  -V(xc)+E(xc)   XCENC  =       -53.18700636
  PAW double counting   =       915.46801746     -752.10009045
  entropy T*S    EENTRO =        -0.00000000
  eigenvalues    EBANDS =      -644.69658906
  atomic energy  EATOM  =      1238.03527989
  Solvation  Ediel_sol  =         0.00000000
  ---------------------------------------------------
  free energy    TOTEN  =      -106.97527077 eV

  energy without entropy =     -106.97527077  energy(sigma->0) =     -106.97527077


--------------------------------------------------------------------------------------------------------




--------------------------------------- Iteration      1(   5)  ---------------------------------------


     EDDAV:  cpu time   13.0280: real time   13.0247
       DOS:  cpu time    0.0010: real time    0.0004
    CHARGE:  cpu time    0.4899: real time    0.4902
    MIXING:  cpu time    0.0440: real time    0.0439
    --------------------------------------------
      LOOP:  cpu time   13.5629: real time   13.5593

 eigenvalue-minimisations  :   144
 total energy-change (2. order) :-0.8325763E-01  (-0.8320338E-01)
 number of electron      56.0000022 magnetization 
 augmentation part       -3.5366325 magnetization 

 Broyden mixing:
  rms(total) = 0.15019E+01    rms(broyden)= 0.15018E+01
  rms(prec ) = 0.15980E+01
  weight for this iteration     100.00

 Free energy of the ion-electron system (eV)
  ---------------------------------------------------
  alpha Z        PSCENC =         1.96423985
  Ewald energy   TEWEN  =      2629.98113996
  -Hartree energ DENC   =     -3442.44026206
  -exchange      EXHF   =         0.00000000
  -V(xc)+E(xc)   XCENC  =       -53.18700636
  PAW double counting   =       915.46801746     -752.10009045
  entropy T*S    EENTRO =        -0.00000000
  eigenvalues    EBANDS =      -644.77984670
  atomic energy  EATOM  =      1238.03527989
  Solvation  Ediel_sol  =         0.00000000
  ---------------------------------------------------
  free energy    TOTEN  =      -107.05852841 eV

  energy without entropy =     -107.05852841  energy(sigma->0) =     -107.05852841


--------------------------------------------------------------------------------------------------------




--------------------------------------- Iteration      1(   6)  ---------------------------------------


    POTLOK:  cpu time    1.7147: real time    1.7192
    SETDIJ:  cpu time    0.0080: real time    0.0077
     EDDAV:  cpu time    9.4376: real time    9.4343
       DOS:  cpu time    0.0000: real time    0.0004
    CHARGE:  cpu time    0.4859: real time    0.4859
    MIXING:  cpu time    0.0460: real time    0.0454
    --------------------------------------------
      LOOP:  cpu time   11.6922: real time   11.6928

 eigenvalue-minimisations  :    96
 total energy-change (2. order) : 0.3219731E+01  (-0.1584718E+00)
 number of electron      56.0000021 magnetization 
 augmentation part       -3.5386906 magnetization 

 Broyden mixing:
  rms(total) = 0.87152E+00    rms(broyden)= 0.87151E+00
  rms(prec ) = 0.93013E+00
  weight for this iteration     100.00

 eigenvalues of (default mixing * dielectric matrix)
  average eigenvalue GAMMA=   2.3111
  2.3111

 Free energy of the ion-electron system (eV)
  ---------------------------------------------------
  alpha Z        PSCENC =         1.96423985
  Ewald energy   TEWEN  =      2629.98113996
  -Hartree energ DENC   =     -3473.86182833
  -exchange      EXHF   =         0.00000000
  -V(xc)+E(xc)   XCENC  =       -49.55191515
  PAW double counting   =      1841.10940052    -1678.51785958
  entropy T*S    EENTRO =        -0.00000000
  eigenvalues    EBANDS =      -612.99725496
  atomic energy  EATOM  =      1238.03527989
  Solvation  Ediel_sol  =         0.00000000
  ---------------------------------------------------
  free energy    TOTEN  =      -103.83879780 eV

  energy without entropy =     -103.83879780  energy(sigma->0) =     -103.83879780


--------------------------------------------------------------------------------------------------------




--------------------------------------- Iteration      1(   7)  ---------------------------------------


    POTLOK:  cpu time    1.7087: real time    1.7083
    SETDIJ:  cpu time    0.0070: real time    0.0075
     EDDAV:  cpu time   10.0325: real time   10.0281
       DOS:  cpu time    0.0000: real time    0.0005
    CHARGE:  cpu time    0.4869: real time    0.4872
    MIXING:  cpu time    0.0470: real time    0.0469
    --------------------------------------------
      LOOP:  cpu time   12.2821: real time   12.2785

 eigenvalue-minimisations  :   104
 total energy-change (2. order) : 0.1691032E+01  (-0.4110539E+00)
 number of electron      56.0000019 magnetization 
 augmentation part       -3.5395105 magnetization 

 Broyden mixing:
  rms(total) = 0.12270E+00    rms(broyden)= 0.12255E+00
  rms(prec ) = 0.15368E+00
  weight for this iteration     100.00

 eigenvalues of (default mixing * dielectric matrix)
  average eigenvalue GAMMA=   1.8407
  1.6911  1.9904

 Free energy of the ion-electron system (eV)
  ---------------------------------------------------
  alpha Z        PSCENC =         1.96423985
  Ewald energy   TEWEN  =      2629.98113996
  -Hartree energ DENC   =     -3529.94888561
  -exchange      EXHF   =         0.00000000
  -V(xc)+E(xc)   XCENC  =       -43.77384300
  PAW double counting   =      3890.73431188    -3729.18369024
  entropy T*S    EENTRO =        -0.00000000
  eigenvalues    EBANDS =      -559.95631845
  atomic energy  EATOM  =      1238.03527989
  Solvation  Ediel_sol  =         0.00000000
  ---------------------------------------------------
  free energy    TOTEN  =      -102.14776572 eV

  energy without entropy =     -102.14776572  energy(sigma->0) =     -102.14776572


--------------------------------------------------------------------------------------------------------




--------------------------------------- Iteration      1(   8)  ---------------------------------------


    POTLOK:  cpu time    1.7147: real time    1.7141
    SETDIJ:  cpu time    0.0130: real time    0.0124
     EDDAV:  cpu time   10.0395: real time   10.0400
       DOS:  cpu time    0.0000: real time    0.0005
    CHARGE:  cpu time    0.4879: real time    0.4873
    MIXING:  cpu time    0.0500: real time    0.0498
    --------------------------------------------
      LOOP:  cpu time   12.3051: real time   12.3041

 eigenvalue-minimisations  :   104
 total energy-change (2. order) : 0.5188530E-01  (-0.2678126E-01)
 number of electron      56.0000019 magnetization 
 augmentation part       -3.5355969 magnetization 

 Broyden mixing:
  rms(total) = 0.61721E-01    rms(broyden)= 0.61706E-01
  rms(prec ) = 0.80985E-01
  weight for this iteration     100.00

 eigenvalues of (default mixing * dielectric matrix)
  average eigenvalue GAMMA=   1.9762
  2.6257  1.6515  1.6515

 Free energy of the ion-electron system (eV)
  ---------------------------------------------------
  alpha Z        PSCENC =         1.96423985
  Ewald energy   TEWEN  =      2629.98113996
  -Hartree energ DENC   =     -3537.76606539
  -exchange      EXHF   =         0.00000000
  -V(xc)+E(xc)   XCENC  =       -43.81572881
  PAW double counting   =      3910.53362883    -3748.89350151
  entropy T*S    EENTRO =        -0.00000000
  eigenvalues    EBANDS =      -552.13487323
  atomic energy  EATOM  =      1238.03527989
  Solvation  Ediel_sol  =         0.00000000
  ---------------------------------------------------
  free energy    TOTEN  =      -102.09588042 eV

  energy without entropy =     -102.09588042  energy(sigma->0) =     -102.09588042


--------------------------------------------------------------------------------------------------------




--------------------------------------- Iteration      1(   9)  ---------------------------------------


    POTLOK:  cpu time    1.7197: real time    1.7193
    SETDIJ:  cpu time    0.0070: real time    0.0075
     EDDAV:  cpu time   11.8462: real time   11.8418
       DOS:  cpu time    0.0010: real time    0.0007
    CHARGE:  cpu time    0.4829: real time    0.4827
    MIXING:  cpu time    0.0530: real time    0.0525
    --------------------------------------------
      LOOP:  cpu time   14.1099: real time   14.1045

 eigenvalue-minimisations  :   128
 total energy-change (2. order) : 0.3486723E-01  (-0.7511545E-02)
 number of electron      56.0000019 magnetization 
 augmentation part       -3.5229215 magnetization 

 Broyden mixing:
  rms(total) = 0.33981E-01    rms(broyden)= 0.33980E-01
  rms(prec ) = 0.45480E-01
  weight for this iteration     100.00

 eigenvalues of (default mixing * dielectric matrix)
  average eigenvalue GAMMA=   1.7387
  2.4936  1.8341  1.8341  0.7932

 Free energy of the ion-electron system (eV)
  ---------------------------------------------------
  alpha Z        PSCENC =         1.96423985
  Ewald energy   TEWEN  =      2629.98113996
  -Hartree energ DENC   =     -3549.39590005
  -exchange      EXHF   =         0.00000000
  -V(xc)+E(xc)   XCENC  =       -43.14385330
  PAW double counting   =      4039.12743918    -3877.51629812
  entropy T*S    EENTRO =        -0.00000000
  eigenvalues    EBANDS =      -541.11306060
  atomic energy  EATOM  =      1238.03527989
  Solvation  Ediel_sol  =         0.00000000
  ---------------------------------------------------
  free energy    TOTEN  =      -102.06101319 eV

  energy without entropy =     -102.06101319  energy(sigma->0) =     -102.06101319


--------------------------------------------------------------------------------------------------------




--------------------------------------- Iteration      1(  10)  ---------------------------------------


    POTLOK:  cpu time    1.7357: real time    1.7351
    SETDIJ:  cpu time    0.0080: real time    0.0077
     EDDAV:  cpu time   10.6414: real time   10.6385
       DOS:  cpu time    0.0010: real time    0.0006
    CHARGE:  cpu time    0.4899: real time    0.4904
    MIXING:  cpu time    0.0560: real time    0.0556
    --------------------------------------------
      LOOP:  cpu time   12.9320: real time   12.9278

 eigenvalue-minimisations  :   112
 total energy-change (2. order) :-0.1464960E-04  (-0.2643824E-03)
 number of electron      56.0000019 magnetization 
 augmentation part       -3.5220371 magnetization 

 Broyden mixing:
  rms(total) = 0.16199E-01    rms(broyden)= 0.16198E-01
  rms(prec ) = 0.29337E-01
  weight for this iteration     100.00

 eigenvalues of (default mixing * dielectric matrix)
  average eigenvalue GAMMA=   1.8931
  2.8601  2.2595  1.0549  1.6455  1.6455

 Free energy of the ion-electron system (eV)
  ---------------------------------------------------
  alpha Z        PSCENC =         1.96423985
  Ewald energy   TEWEN  =      2629.98113996
  -Hartree energ DENC   =     -3551.49163531
  -exchange      EXHF   =         0.00000000
  -V(xc)+E(xc)   XCENC  =       -43.13894674
  PAW double counting   =      3961.93241953    -3800.27627725
  entropy T*S    EENTRO =        -0.00000000
  eigenvalues    EBANDS =      -539.06724776
  atomic energy  EATOM  =      1238.03527989
  Solvation  Ediel_sol  =         0.00000000
  ---------------------------------------------------
  free energy    TOTEN  =      -102.06102783 eV

  energy without entropy =     -102.06102783  energy(sigma->0) =     -102.06102783


--------------------------------------------------------------------------------------------------------




--------------------------------------- Iteration      1(  11)  ---------------------------------------


    POTLOK:  cpu time    1.7457: real time    1.7605
    SETDIJ:  cpu time    0.0080: real time    0.0075
     EDDAV:  cpu time    9.9775: real time    9.9865
       DOS:  cpu time    0.0000: real time    0.0003
    CHARGE:  cpu time    0.4879: real time    0.4873
    MIXING:  cpu time    0.0580: real time    0.0582
    --------------------------------------------
      LOOP:  cpu time   12.2771: real time   12.3003

 eigenvalue-minimisations  :   104
 total energy-change (2. order) : 0.4920769E-03  (-0.7264163E-03)
 number of electron      56.0000019 magnetization 
 augmentation part       -3.5210380 magnetization 

 Broyden mixing:
  rms(total) = 0.81963E-02    rms(broyden)= 0.81960E-02
  rms(prec ) = 0.14513E-01
  weight for this iteration     100.00

 eigenvalues of (default mixing * dielectric matrix)
  average eigenvalue GAMMA=   1.8487
  3.1706  2.5448  1.7329  1.7329  1.0420  0.8692

 Free energy of the ion-electron system (eV)
  ---------------------------------------------------
  alpha Z        PSCENC =         1.96423985
  Ewald energy   TEWEN  =      2629.98113996
  -Hartree energ DENC   =     -3558.58198849
  -exchange      EXHF   =         0.00000000
  -V(xc)+E(xc)   XCENC  =       -42.93539155
  PAW double counting   =      3917.11210519    -3755.41209215
  entropy T*S    EENTRO =        -0.00000000
  eigenvalues    EBANDS =      -532.22382846
  atomic energy  EATOM  =      1238.03527989
  Solvation  Ediel_sol  =         0.00000000
  ---------------------------------------------------
  free energy    TOTEN  =      -102.06053576 eV

  energy without entropy =     -102.06053576  energy(sigma->0) =     -102.06053576


--------------------------------------------------------------------------------------------------------




--------------------------------------- Iteration      1(  12)  ---------------------------------------


    POTLOK:  cpu time    1.7437: real time    1.7442
    SETDIJ:  cpu time    0.0080: real time    0.0077
     EDDAV:  cpu time    9.3896: real time    9.3930
       DOS:  cpu time    0.0000: real time    0.0003
    CHARGE:  cpu time    0.4919: real time    0.4916
    MIXING:  cpu time    0.0600: real time    0.0607
    --------------------------------------------
      LOOP:  cpu time   11.6932: real time   11.6975

 eigenvalue-minimisations  :    96
 total energy-change (2. order) :-0.4183605E-02  (-0.8561488E-04)
 number of electron      56.0000019 magnetization 
 augmentation part       -3.5206940 magnetization 

 Broyden mixing:
  rms(total) = 0.58067E-02    rms(broyden)= 0.58067E-02
  rms(prec ) = 0.10249E-01
  weight for this iteration     100.00

 eigenvalues of (default mixing * dielectric matrix)
  average eigenvalue GAMMA=   2.0343
  4.3327  2.5324  2.3152  1.5613  1.5613  0.9684  0.9684

 Free energy of the ion-electron system (eV)
  ---------------------------------------------------
  alpha Z        PSCENC =         1.96423985
  Ewald energy   TEWEN  =      2629.98113996
  -Hartree energ DENC   =     -3560.57572511
  -exchange      EXHF   =         0.00000000
  -V(xc)+E(xc)   XCENC  =       -42.90453988
  PAW double counting   =      3909.37705947    -3747.67478192
  entropy T*S    EENTRO =        -0.00000000
  eigenvalues    EBANDS =      -530.26739162
  atomic energy  EATOM  =      1238.03527989
  Solvation  Ediel_sol  =         0.00000000
  ---------------------------------------------------
  free energy    TOTEN  =      -102.06471936 eV

  energy without entropy =     -102.06471936  energy(sigma->0) =     -102.06471936


--------------------------------------------------------------------------------------------------------




--------------------------------------- Iteration      1(  13)  ---------------------------------------


    POTLOK:  cpu time    1.7407: real time    1.7399
    SETDIJ:  cpu time    0.0080: real time    0.0075
     EDDAV:  cpu time   10.0355: real time   10.0341
       DOS:  cpu time    0.0000: real time    0.0003
    CHARGE:  cpu time    0.4829: real time    0.4821
    MIXING:  cpu time    0.0630: real time    0.0642
    --------------------------------------------
      LOOP:  cpu time   12.3301: real time   12.3282

 eigenvalue-minimisations  :   104
 total energy-change (2. order) :-0.4818754E-02  (-0.1936310E-03)
 number of electron      56.0000019 magnetization 
 augmentation part       -3.5205311 magnetization 

 Broyden mixing:
  rms(total) = 0.34791E-02    rms(broyden)= 0.34790E-02
  rms(prec ) = 0.52979E-02
  weight for this iteration     100.00

 eigenvalues of (default mixing * dielectric matrix)
  average eigenvalue GAMMA=   2.1857
  5.6623  2.8910  2.3415  1.7883  1.7883  1.0963  0.9590  0.9590

 Free energy of the ion-electron system (eV)
  ---------------------------------------------------
  alpha Z        PSCENC =         1.96423985
  Ewald energy   TEWEN  =      2629.98113996
  -Hartree energ DENC   =     -3563.50716112
  -exchange      EXHF   =         0.00000000
  -V(xc)+E(xc)   XCENC  =       -42.85075111
  PAW double counting   =      3914.08567284    -3752.39030744
  entropy T*S    EENTRO =        -0.00000000
  eigenvalues    EBANDS =      -527.38765098
  atomic energy  EATOM  =      1238.03527989
  Solvation  Ediel_sol  =         0.00000000
  ---------------------------------------------------
  free energy    TOTEN  =      -102.06953812 eV

  energy without entropy =     -102.06953812  energy(sigma->0) =     -102.06953812


--------------------------------------------------------------------------------------------------------




--------------------------------------- Iteration      1(  14)  ---------------------------------------


    POTLOK:  cpu time    1.7337: real time    1.7330
    SETDIJ:  cpu time    0.0080: real time    0.0076
     EDDAV:  cpu time   10.6274: real time   10.6254
       DOS:  cpu time    0.0010: real time    0.0003
    CHARGE:  cpu time    0.4869: real time    0.4862
    MIXING:  cpu time    0.0710: real time    0.0711
    --------------------------------------------
      LOOP:  cpu time   12.9280: real time   12.9236

 eigenvalue-minimisations  :   112
 total energy-change (2. order) :-0.3816928E-02  (-0.3184077E-04)
 number of electron      56.0000019 magnetization 
 augmentation part       -3.5200331 magnetization 

 Broyden mixing:
  rms(total) = 0.16458E-02    rms(broyden)= 0.16458E-02
  rms(prec ) = 0.28512E-02
  weight for this iteration     100.00

 eigenvalues of (default mixing * dielectric matrix)
  average eigenvalue GAMMA=   2.2732
  6.4922  2.8242  2.8242  2.0313  1.6382  1.6382  1.1023  0.9540  0.9540

 Free energy of the ion-electron system (eV)
  ---------------------------------------------------
  alpha Z        PSCENC =         1.96423985
  Ewald energy   TEWEN  =      2629.98113996
  -Hartree energ DENC   =     -3564.31125206
  -exchange      EXHF   =         0.00000000
  -V(xc)+E(xc)   XCENC  =       -42.85989683
  PAW double counting   =      3913.67842880    -3751.98450440
  entropy T*S    EENTRO =        -0.00000000
  eigenvalues    EBANDS =      -526.57679025
  atomic energy  EATOM  =      1238.03527989
  Solvation  Ediel_sol  =         0.00000000
  ---------------------------------------------------
  free energy    TOTEN  =      -102.07335504 eV

  energy without entropy =     -102.07335504  energy(sigma->0) =     -102.07335504


--------------------------------------------------------------------------------------------------------




--------------------------------------- Iteration      1(  15)  ---------------------------------------


    POTLOK:  cpu time    1.7367: real time    1.7365
    SETDIJ:  cpu time    0.0070: real time    0.0075
     EDDAV:  cpu time   10.6034: real time   10.6009
       DOS:  cpu time    0.0000: real time    0.0004
    CHARGE:  cpu time    0.4889: real time    0.4905
    MIXING:  cpu time    0.0780: real time    0.0780
    --------------------------------------------
      LOOP:  cpu time   12.9140: real time   12.9138

 eigenvalue-minimisations  :   112
 total energy-change (2. order) :-0.4612277E-02  (-0.5649493E-04)
 number of electron      56.0000019 magnetization 
 augmentation part       -3.5197495 magnetization 

 Broyden mixing:
  rms(total) = 0.15690E-02    rms(broyden)= 0.15690E-02
  rms(prec ) = 0.20217E-02
  weight for this iteration     100.00

 eigenvalues of (default mixing * dielectric matrix)
  average eigenvalue GAMMA=   2.2967
  6.7335  3.7300  2.6132  1.9706  1.9076  1.9076  1.2274  0.9329  0.9719  0.9719

 Free energy of the ion-electron system (eV)
  ---------------------------------------------------
  alpha Z        PSCENC =         1.96423985
  Ewald energy   TEWEN  =      2629.98113996
  -Hartree energ DENC   =     -3564.55644496
  -exchange      EXHF   =         0.00000000
  -V(xc)+E(xc)   XCENC  =       -42.86925121
  PAW double counting   =      3918.27131943    -3756.57762059
  entropy T*S    EENTRO =        -0.00000000
  eigenvalues    EBANDS =      -526.32662970
  atomic energy  EATOM  =      1238.03527989
  Solvation  Ediel_sol  =         0.00000000
  ---------------------------------------------------
  free energy    TOTEN  =      -102.07796732 eV

  energy without entropy =     -102.07796732  energy(sigma->0) =     -102.07796732


--------------------------------------------------------------------------------------------------------




--------------------------------------- Iteration      1(  16)  ---------------------------------------


    POTLOK:  cpu time    1.8277: real time    1.8682
    SETDIJ:  cpu time    0.0080: real time    0.0077
     EDDAV:  cpu time   10.6294: real time   10.6317
       DOS:  cpu time    0.0010: real time    0.0005
    CHARGE:  cpu time    0.4989: real time    0.4991
    MIXING:  cpu time    0.0870: real time    0.0867
    --------------------------------------------
      LOOP:  cpu time   13.0520: real time   13.0939

 eigenvalue-minimisations  :   112
 total energy-change (2. order) :-0.1148858E-02  (-0.6277593E-05)
 number of electron      56.0000019 magnetization 
 augmentation part       -3.5199426 magnetization 

 Broyden mixing:
  rms(total) = 0.69451E-03    rms(broyden)= 0.69450E-03
  rms(prec ) = 0.10204E-02
  weight for this iteration     100.00

 eigenvalues of (default mixing * dielectric matrix)
  average eigenvalue GAMMA=   2.4148
  7.3806  4.6551  2.6309  2.6309  1.8162  1.8162  1.3680  1.3680  0.9581  0.9581
  0.9807

 Free energy of the ion-electron system (eV)
  ---------------------------------------------------
  alpha Z        PSCENC =         1.96423985
  Ewald energy   TEWEN  =      2629.98113996
  -Hartree energ DENC   =     -3564.65863181
  -exchange      EXHF   =         0.00000000
  -V(xc)+E(xc)   XCENC  =       -42.86818752
  PAW double counting   =      3917.89387504    -3756.19892484
  entropy T*S    EENTRO =        -0.00000000
  eigenvalues    EBANDS =      -526.22790675
  atomic energy  EATOM  =      1238.03527989
  Solvation  Ediel_sol  =         0.00000000
  ---------------------------------------------------
  free energy    TOTEN  =      -102.07911618 eV

  energy without entropy =     -102.07911618  energy(sigma->0) =     -102.07911618


--------------------------------------------------------------------------------------------------------




--------------------------------------- Iteration      1(  17)  ---------------------------------------


    POTLOK:  cpu time    1.7257: real time    1.7261
    SETDIJ:  cpu time    0.0070: real time    0.0075
     EDDAV:  cpu time   10.0335: real time   10.0349
       DOS:  cpu time    0.0010: real time    0.0004
    CHARGE:  cpu time    0.4869: real time    0.4876
    MIXING:  cpu time    0.0980: real time    0.0974
    --------------------------------------------
      LOOP:  cpu time   12.3521: real time   12.3539

 eigenvalue-minimisations  :   104
 total energy-change (2. order) :-0.1046756E-02  (-0.8733013E-05)
 number of electron      56.0000019 magnetization 
 augmentation part       -3.5201107 magnetization 

 Broyden mixing:
  rms(total) = 0.35118E-03    rms(broyden)= 0.35115E-03
  rms(prec ) = 0.48592E-03
  weight for this iteration     100.00

 eigenvalues of (default mixing * dielectric matrix)
  average eigenvalue GAMMA=   2.3817
  7.5238  4.9379  2.6445  2.6445  1.9483  1.9483  1.4992  1.4992  0.9732  0.9732
  1.0209  0.9678

 Free energy of the ion-electron system (eV)
  ---------------------------------------------------
  alpha Z        PSCENC =         1.96423985
  Ewald energy   TEWEN  =      2629.98113996
  -Hartree energ DENC   =     -3564.68626039
  -exchange      EXHF   =         0.00000000
  -V(xc)+E(xc)   XCENC  =       -42.87036234
  PAW double counting   =      3916.24420297    -3754.54801375
  entropy T*S    EENTRO =        -0.00000000
  eigenvalues    EBANDS =      -526.20038913
  atomic energy  EATOM  =      1238.03527989
  Solvation  Ediel_sol  =         0.00000000
  ---------------------------------------------------
  free energy    TOTEN  =      -102.08016294 eV

  energy without entropy =     -102.08016294  energy(sigma->0) =     -102.08016294


--------------------------------------------------------------------------------------------------------




--------------------------------------- Iteration      1(  18)  ---------------------------------------


    POTLOK:  cpu time    1.7257: real time    1.7268
    SETDIJ:  cpu time    0.0150: real time    0.0144
     EDDAV:  cpu time   10.0185: real time   10.0165
       DOS:  cpu time    0.0010: real time    0.0005
    CHARGE:  cpu time    0.4879: real time    0.4909
    MIXING:  cpu time    0.1100: real time    0.1104
    --------------------------------------------
      LOOP:  cpu time   12.3581: real time   12.3596

 eigenvalue-minimisations  :   104
 total energy-change (2. order) :-0.2686136E-03  (-0.8031397E-06)
 number of electron      56.0000019 magnetization 
 augmentation part       -3.5201014 magnetization 

 Broyden mixing:
  rms(total) = 0.19519E-03    rms(broyden)= 0.19517E-03
  rms(prec ) = 0.28710E-03
  weight for this iteration     100.00

 eigenvalues of (default mixing * dielectric matrix)
  average eigenvalue GAMMA=   2.4803
  8.1572  5.7177  3.1673  2.6170  2.2980  1.7923  1.7923  1.3907  1.3907  0.9678
  0.9678  0.9928  0.9928

 Free energy of the ion-electron system (eV)
  ---------------------------------------------------
  alpha Z        PSCENC =         1.96423985
  Ewald energy   TEWEN  =      2629.98113996
  -Hartree energ DENC   =     -3564.70657241
  -exchange      EXHF   =         0.00000000
  -V(xc)+E(xc)   XCENC  =       -42.87051188
  PAW double counting   =      3916.04091302    -3754.34524717
  entropy T*S    EENTRO =        -0.00000000
  eigenvalues    EBANDS =      -526.17967281
  atomic energy  EATOM  =      1238.03527989
  Solvation  Ediel_sol  =         0.00000000
  ---------------------------------------------------
  free energy    TOTEN  =      -102.08043155 eV

  energy without entropy =     -102.08043155  energy(sigma->0) =     -102.08043155


--------------------------------------------------------------------------------------------------------




--------------------------------------- Iteration      1(  19)  ---------------------------------------


    POTLOK:  cpu time    1.7387: real time    1.7376
    SETDIJ:  cpu time    0.0080: real time    0.0078
     EDDAV:  cpu time    9.4136: real time    9.4144
       DOS:  cpu time    0.0000: real time    0.0004
    CHARGE:  cpu time    0.4859: real time    0.4861
    MIXING:  cpu time    0.1210: real time    0.1201
    --------------------------------------------
      LOOP:  cpu time   11.7672: real time   11.7663

 eigenvalue-minimisations  :    96
 total energy-change (2. order) :-0.1888562E-03  (-0.7840080E-06)
 number of electron      56.0000019 magnetization 
 augmentation part       -3.5201408 magnetization 

 Broyden mixing:
  rms(total) = 0.19376E-03    rms(broyden)= 0.19375E-03
  rms(prec ) = 0.23276E-03
  weight for this iteration     100.00

 eigenvalues of (default mixing * dielectric matrix)
  average eigenvalue GAMMA=   2.4661
  8.2975  6.0479  3.2725  2.6806  2.0196  2.0196  1.7337  1.7337  1.6322  1.2598
  0.9861  0.9861  0.9282  0.9282

 Free energy of the ion-electron system (eV)
  ---------------------------------------------------
  alpha Z        PSCENC =         1.96423985
  Ewald energy   TEWEN  =      2629.98113996
  -Hartree energ DENC   =     -3564.72611980
  -exchange      EXHF   =         0.00000000
  -V(xc)+E(xc)   XCENC  =       -42.86902875
  PAW double counting   =      3915.88098247    -3754.18549516
  entropy T*S    EENTRO =        -0.00000000
  eigenvalues    EBANDS =      -526.16161886
  atomic energy  EATOM  =      1238.03527989
  Solvation  Ediel_sol  =         0.00000000
  ---------------------------------------------------
  free energy    TOTEN  =      -102.08062040 eV

  energy without entropy =     -102.08062040  energy(sigma->0) =     -102.08062040


--------------------------------------------------------------------------------------------------------




--------------------------------------- Iteration      1(  20)  ---------------------------------------


    POTLOK:  cpu time    1.7537: real time    1.7539
    SETDIJ:  cpu time    0.0080: real time    0.0078
     EDDAV:  cpu time    8.8467: real time    8.8581
       DOS:  cpu time    0.0010: real time    0.0004
    CHARGE:  cpu time    0.4879: real time    0.4882
    MIXING:  cpu time    0.1300: real time    0.1300
    --------------------------------------------
      LOOP:  cpu time   11.2273: real time   11.2385

 eigenvalue-minimisations  :    88
 total energy-change (2. order) :-0.5004800E-04  (-0.9096712E-07)
 number of electron      56.0000019 magnetization 
 augmentation part       -3.5201264 magnetization 

 Broyden mixing:
  rms(total) = 0.52576E-04    rms(broyden)= 0.52574E-04
  rms(prec ) = 0.81097E-04
  weight for this iteration     100.00

 eigenvalues of (default mixing * dielectric matrix)
  average eigenvalue GAMMA=   2.5103
  8.6325  6.3519  3.9734  2.8196  2.5521  1.8453  1.8453  1.6389  1.6389  1.2682
  1.2682  0.9746  0.9746  0.9732  0.8971

 Free energy of the ion-electron system (eV)
  ---------------------------------------------------
  alpha Z        PSCENC =         1.96423985
  Ewald energy   TEWEN  =      2629.98113996
  -Hartree energ DENC   =     -3564.73049772
  -exchange      EXHF   =         0.00000000
  -V(xc)+E(xc)   XCENC  =       -42.86989465
  PAW double counting   =      3915.75463083    -3754.05916139
  entropy T*S    EENTRO =        -0.00000000
  eigenvalues    EBANDS =      -526.15640722
  atomic energy  EATOM  =      1238.03527989
  Solvation  Ediel_sol  =         0.00000000
  ---------------------------------------------------
  free energy    TOTEN  =      -102.08067045 eV

  energy without entropy =     -102.08067045  energy(sigma->0) =     -102.08067045


--------------------------------------------------------------------------------------------------------




--------------------------------------- Iteration      1(  21)  ---------------------------------------


    POTLOK:  cpu time    1.7197: real time    1.7861
    SETDIJ:  cpu time    0.0080: real time    0.0082
     EDDAV:  cpu time    8.1828: real time    8.1980
       DOS:  cpu time    0.0010: real time    0.0003
    CHARGE:  cpu time    0.4839: real time    0.4853
    MIXING:  cpu time    0.1390: real time    0.1403
    --------------------------------------------
      LOOP:  cpu time   10.5344: real time   10.6183

 eigenvalue-minimisations  :    80
 total energy-change (2. order) :-0.2884848E-04  (-0.9388098E-07)
 number of electron      56.0000019 magnetization 
 augmentation part       -3.5201080 magnetization 

 Broyden mixing:
  rms(total) = 0.55510E-04    rms(broyden)= 0.55508E-04
  rms(prec ) = 0.69849E-04
  weight for this iteration     100.00

 eigenvalues of (default mixing * dielectric matrix)
  average eigenvalue GAMMA=   2.4878
  8.5161  6.6034  4.0081  2.8672  2.6198  2.0479  2.0479  1.7290  1.7290  1.5093
  1.2163  1.0084  0.9430  0.9430  1.0080  1.0080

 Free energy of the ion-electron system (eV)
  ---------------------------------------------------
  alpha Z        PSCENC =         1.96423985
  Ewald energy   TEWEN  =      2629.98113996
  -Hartree energ DENC   =     -3564.73755330
  -exchange      EXHF   =         0.00000000
  -V(xc)+E(xc)   XCENC  =       -42.86996442
  PAW double counting   =      3915.86808047    -3754.17272962
  entropy T*S    EENTRO =        -0.00000000
  eigenvalues    EBANDS =      -526.14919212
  atomic energy  EATOM  =      1238.03527989
  Solvation  Ediel_sol  =         0.00000000
  ---------------------------------------------------
  free energy    TOTEN  =      -102.08069930 eV

  energy without entropy =     -102.08069930  energy(sigma->0) =     -102.08069930


--------------------------------------------------------------------------------------------------------




--------------------------------------- Iteration      1(  22)  ---------------------------------------


    POTLOK:  cpu time    1.7217: real time    1.7245
    SETDIJ:  cpu time    0.0070: real time    0.0077
     EDDAV:  cpu time    8.8437: real time    8.8571
       DOS:  cpu time    0.0000: real time    0.0004
    CHARGE:  cpu time    0.4819: real time    0.4841
    MIXING:  cpu time    0.1520: real time    0.1521
    --------------------------------------------
      LOOP:  cpu time   11.2063: real time   11.2260

 eigenvalue-minimisations  :    88
 total energy-change (2. order) :-0.7730891E-05  (-0.1602359E-07)
 number of electron      56.0000019 magnetization 
 augmentation part       -3.5201151 magnetization 

 Broyden mixing:
  rms(total) = 0.22870E-04    rms(broyden)= 0.22869E-04
  rms(prec ) = 0.31018E-04
  weight for this iteration     100.00

 eigenvalues of (default mixing * dielectric matrix)
  average eigenvalue GAMMA=   2.5235
  8.7944  6.7665  4.6393  3.2097  2.5750  2.5750  1.8907  1.8907  1.6619  1.6619
  1.2049  1.2049  1.0038  0.9695  0.9695  0.9408  0.9408

 Free energy of the ion-electron system (eV)
  ---------------------------------------------------
  alpha Z        PSCENC =         1.96423985
  Ewald energy   TEWEN  =      2629.98113996
  -Hartree energ DENC   =     -3564.73744834
  -exchange      EXHF   =         0.00000000
  -V(xc)+E(xc)   XCENC  =       -42.86980608
  PAW double counting   =      3915.93990923    -3754.24448205
  entropy T*S    EENTRO =        -0.00000000
  eigenvalues    EBANDS =      -526.14953949
  atomic energy  EATOM  =      1238.03527989
  Solvation  Ediel_sol  =         0.00000000
  ---------------------------------------------------
  free energy    TOTEN  =      -102.08070703 eV

  energy without entropy =     -102.08070703  energy(sigma->0) =     -102.08070703


--------------------------------------------------------------------------------------------------------




--------------------------------------- Iteration      1(  23)  ---------------------------------------


    POTLOK:  cpu time    1.7237: real time    1.7263
    SETDIJ:  cpu time    0.0080: real time    0.0074
     EDDAV:  cpu time    8.2237: real time    8.2374
       DOS:  cpu time    0.0010: real time    0.0004
    CHARGE:  cpu time    0.4819: real time    0.4821
    MIXING:  cpu time    0.1650: real time    0.1653
    --------------------------------------------
      LOOP:  cpu time   10.6034: real time   10.6189

 eigenvalue-minimisations  :    80
 total energy-change (2. order) :-0.4477405E-05  (-0.1244704E-07)
 number of electron      56.0000019 magnetization 
 augmentation part       -3.5201229 magnetization 

 Broyden mixing:
  rms(total) = 0.15533E-04    rms(broyden)= 0.15532E-04
  rms(prec ) = 0.19571E-04
  weight for this iteration     100.00

 eigenvalues of (default mixing * dielectric matrix)
  average eigenvalue GAMMA=   2.4962
  8.8438  6.8183  4.7878  3.1479  2.6409  2.6409  1.9508  1.9508  1.6933  1.6933
  1.3426  1.3426  1.0981  1.0981  0.9804  0.9804  0.9470  0.9753

 Free energy of the ion-electron system (eV)
  ---------------------------------------------------
  alpha Z        PSCENC =         1.96423985
  Ewald energy   TEWEN  =      2629.98113996
  -Hartree energ DENC   =     -3564.73628263
  -exchange      EXHF   =         0.00000000
  -V(xc)+E(xc)   XCENC  =       -42.86993340
  PAW double counting   =      3915.90151618    -3754.20602554
  entropy T*S    EENTRO =        -0.00000000
  eigenvalues    EBANDS =      -526.15064581
  atomic energy  EATOM  =      1238.03527989
  Solvation  Ediel_sol  =         0.00000000
  ---------------------------------------------------
  free energy    TOTEN  =      -102.08071151 eV

  energy without entropy =     -102.08071151  energy(sigma->0) =     -102.08071151


--------------------------------------------------------------------------------------------------------




--------------------------------------- Iteration      1(  24)  ---------------------------------------


    POTLOK:  cpu time    1.7287: real time    1.7324
    SETDIJ:  cpu time    0.0070: real time    0.0075
     EDDAV:  cpu time    8.2158: real time    8.2279
       DOS:  cpu time    0.0000: real time    0.0003
    CHARGE:  cpu time    0.4839: real time    0.4862
    MIXING:  cpu time    0.1800: real time    0.1796
    --------------------------------------------
      LOOP:  cpu time   10.6154: real time   10.6338

 eigenvalue-minimisations  :    80
 total energy-change (2. order) :-0.2181422E-05  (-0.3154572E-08)
 number of electron      56.0000019 magnetization 
 augmentation part       -3.5201228 magnetization 

 Broyden mixing:
  rms(total) = 0.73350E-05    rms(broyden)= 0.73348E-05
  rms(prec ) = 0.97071E-05
  weight for this iteration     100.00

 eigenvalues of (default mixing * dielectric matrix)
  average eigenvalue GAMMA=   2.5638
  8.8492  7.1555  5.4348  3.9061  2.9328  2.4751  2.4751  1.8839  1.8839  1.6707
  1.6707  1.2256  1.2256  1.0937  0.9848  0.9848  0.9490  0.9490  0.9611

 Free energy of the ion-electron system (eV)
  ---------------------------------------------------
  alpha Z        PSCENC =         1.96423985
  Ewald energy   TEWEN  =      2629.98113996
  -Hartree energ DENC   =     -3564.73717125
  -exchange      EXHF   =         0.00000000
  -V(xc)+E(xc)   XCENC  =       -42.86993209
  PAW double counting   =      3915.85099677    -3754.15553290
  entropy T*S    EENTRO =        -0.00000000
  eigenvalues    EBANDS =      -526.14973393
  atomic energy  EATOM  =      1238.03527989
  Solvation  Ediel_sol  =         0.00000000
  ---------------------------------------------------
  free energy    TOTEN  =      -102.08071369 eV

  energy without entropy =     -102.08071369  energy(sigma->0) =     -102.08071369


--------------------------------------------------------------------------------------------------------




--------------------------------------- Iteration      1(  25)  ---------------------------------------


    POTLOK:  cpu time    1.7397: real time    1.7436
    SETDIJ:  cpu time    0.0070: real time    0.0074
     EDDAV:  cpu time    8.1758: real time    8.1946
       DOS:  cpu time    0.0000: real time    0.0003
    --------------------------------------------
      LOOP:  cpu time    9.9225: real time    9.9459

 eigenvalue-minimisations  :    80
 total energy-change (2. order) :-0.9252803E-06  (-0.1596865E-08)
 number of electron      56.0000019 magnetization 
 augmentation part       -3.5201228 magnetization 

 Free energy of the ion-electron system (eV)
  ---------------------------------------------------
  alpha Z        PSCENC =         1.96423985
  Ewald energy   TEWEN  =      2629.98113996
  -Hartree energ DENC   =     -3564.73768034
  -exchange      EXHF   =         0.00000000
  -V(xc)+E(xc)   XCENC  =       -42.86989846
  PAW double counting   =      3915.85378972    -3754.15833832
  entropy T*S    EENTRO =        -0.00000000
  eigenvalues    EBANDS =      -526.14924692
  atomic energy  EATOM  =      1238.03527989
  Solvation  Ediel_sol  =         0.00000000
  ---------------------------------------------------
  free energy    TOTEN  =      -102.08071462 eV

  energy without entropy =     -102.08071462  energy(sigma->0) =     -102.08071462


--------------------------------------------------------------------------------------------------------




 average (electrostatic) potential at core
  the test charge radii are     0.9892  1.1631  0.5201
  (the norm of the test charge is              1.0000)
       1 -93.3984       2 -93.4173       3 -93.4628       4 -93.4374       5 -93.4376
       6 -93.4566       7 -40.3998       8 -40.3874       9 -40.4410      10 -40.3937
      11 -41.0600      12 -41.0650      13 -41.0701      14 -40.6919      15 -40.6958
      16 -40.6966      17 -40.6966      18 -40.6997      19 -40.6887      20 -41.0693
      21 -41.0704      22 -40.6891      23 -40.6993      24 -40.7052      25 -41.0753
      26 -41.0694
 
 
 
 E-fermi :  -5.3971     XC(G=0):  -0.6080     alpha+bet : -0.3388


 k-point     1 :       0.0000    0.0000    0.0000
  band No.  band energies     occupation 
      1     -15.1615      2.00000
      2     -14.3949      2.00000
      3     -14.1019      2.00000
      4     -13.7285      2.00000
      5     -13.1831      2.00000
      6     -12.6953      2.00000
      7     -11.6879      2.00000
      8     -11.3920      2.00000
      9     -11.2738      2.00000
     10     -10.4003      2.00000
     11      -8.9554      2.00000
     12      -8.6305      2.00000
     13      -8.6236      2.00000
     14      -8.6167      2.00000
     15      -8.1912      2.00000
     16      -8.1797      2.00000
     17      -8.1691      2.00000
     18      -7.8649      2.00000
     19      -7.8567      2.00000
     20      -7.8489      2.00000
     21      -6.7913      2.00000
     22      -6.7682      2.00000
     23      -6.4825      2.00000
     24      -6.4666      2.00000
     25      -6.4539      2.00000
     26      -6.3937      2.00000
     27      -6.3876      2.00000
     28      -6.3749      2.00000
     29      -1.7587      0.00000
     30      -1.4133      0.00000
     31      -1.3298      0.00000
     32      -1.2425      0.00000
     33      -1.1661      0.00000
     34      -1.1176      0.00000
     35      -1.0742      0.00000
     36      -0.9583      0.00000
     37      -0.8451      0.00000
     38      -0.5806      0.00000
     39      -0.4851      0.00000
     40      -0.3892      0.00000
     41      -0.2800      0.00000
     42      -0.1868      0.00000


--------------------------------------------------------------------------------------------------------


 soft charge-density along one line, spin component           1
         0         1         2         3         4         5         6         7         8         9
 total charge-density along one line
 
 pseudopotential strength for first ion, spin component:           1
 19.613  27.371   0.002   0.003   0.001   0.003   0.005   0.002
 27.371  38.202   0.002   0.004   0.002   0.004   0.008   0.003
  0.002   0.002   4.359   0.000   0.000   8.131   0.000   0.001
  0.003   0.004   0.000   4.359   0.000   0.000   8.131   0.000
  0.001   0.002   0.000   0.000   4.359   0.001   0.000   8.131
  0.003   0.004   8.131   0.000   0.001  15.178   0.001   0.001
  0.005   0.008   0.000   8.131   0.000   0.001  15.177   0.001
  0.002   0.003   0.001   0.000   8.131   0.001   0.001  15.177
 total augmentation occupancy for first ion, spin component:           1
  5.556  -2.037   0.051  -0.340  -0.055  -0.014   0.102   0.017
 -2.037   0.809  -0.035   0.205   0.032   0.008  -0.045  -0.007
  0.051  -0.035   2.836  -0.113  -0.032  -0.615   0.039   0.009
 -0.340   0.205  -0.113   3.282   0.050   0.039  -0.775  -0.019
 -0.055   0.032  -0.032   0.050   2.841   0.009  -0.019  -0.614
 -0.014   0.008  -0.615   0.039   0.009   0.140  -0.011  -0.002
  0.102  -0.045   0.039  -0.775  -0.019  -0.011   0.186   0.006
  0.017  -0.007   0.009  -0.019  -0.614  -0.002   0.006   0.139


------------------------ aborting loop because EDIFF is reached ----------------------------------------


    CHARGE:  cpu time    0.4839: real time    0.4839
    FORLOC:  cpu time    0.1700: real time    0.1711
    FORNL :  cpu time    1.0858: real time    1.0882
    STRESS:  cpu time    7.7928: real time    7.8243
    FORCOR:  cpu time    1.7237: real time    1.7258
    FORHAR:  cpu time    0.5839: real time    0.5846
    MIXING:  cpu time    0.1890: real time    0.1897
    OFIELD:  cpu time    0.0000: real time    0.0000

  FORCE on cell =-STRESS in cart. coord.  units (eV):
  Direction    XX          YY          ZZ          XY          YZ          ZX
  --------------------------------------------------------------------------------------
  Alpha Z     1.96424     1.96424     1.96424
  Ewald     876.64706   876.62235   876.71007    -0.21850     0.02563    -0.50464
  Hartree  1188.87152  1187.32652  1188.53986    -0.21357     0.33697    -0.08970
  E(xc)    -177.13778  -177.21314  -177.17208     0.09889     0.03402    -0.02909
  Local   -2568.99337 -2567.48899 -2568.71081     0.51257    -0.32886     0.59755
  n-local   272.96907   273.48077   273.14091    -0.54902    -0.21849     0.10580
  augment   -27.54858   -27.55682   -27.55286    -0.00038    -0.00260    -0.00502
  Kinetic   429.32992   428.99417   429.16910     0.23508     0.11610    -0.04285
  Fock        0.00000     0.00000     0.00000     0.00000     0.00000     0.00000
  -------------------------------------------------------------------------------------
  Total      -3.89792    -3.87090    -3.91157    -0.13493    -0.03722     0.03204
  in kB      -0.78065    -0.77523    -0.78338    -0.02702    -0.00746     0.00642
  external pressure =       -0.78 kB  Pullay stress =        0.00 kB


 VOLUME and BASIS-vectors are now :
 -----------------------------------------------------------------------------
  energy-cutoff  :      400.00
[...]
    SETDIJ:  cpu time    0.0080: real time    0.0078
     EDDAV:  cpu time   11.3333: real time   11.3293
       DOS:  cpu time    0.0010: real time    0.0004
    CHARGE:  cpu time    0.4899: real time    0.4900
    MIXING:  cpu time    0.0470: real time    0.0469
    --------------------------------------------
      LOOP:  cpu time   13.6319: real time   13.6277

 eigenvalue-minimisations  :   120
 total energy-change (2. order) :-0.1978953E-04  (-0.2854896E-04)
 number of electron      56.0000003 magnetization 
 augmentation part       -3.5153499 magnetization 

 Broyden mixing:
  rms(total) = 0.15414E-02    rms(broyden)= 0.15411E-02
  rms(prec ) = 0.16534E-02
  weight for this iteration     100.00

 eigenvalues of (default mixing * dielectric matrix)
  average eigenvalue GAMMA=   1.1150
  1.1150

 Free energy of the ion-electron system (eV)
  ---------------------------------------------------
  alpha Z        PSCENC =         1.96423985
  Ewald energy   TEWEN  =      2645.11318302
  -Hartree energ DENC   =     -3578.90922535
  -exchange      EXHF   =         0.00000000
  -V(xc)+E(xc)   XCENC  =       -42.20058069
  PAW double counting   =      4162.35079146    -4000.75317283
  entropy T*S    EENTRO =        -0.00000000
  eigenvalues    EBANDS =      -527.92665343
  atomic energy  EATOM  =      1238.03527989
  Solvation  Ediel_sol  =         0.00000000
  ---------------------------------------------------
  free energy    TOTEN  =      -102.32613808 eV

  energy without entropy =     -102.32613808  energy(sigma->0) =     -102.32613808


--------------------------------------------------------------------------------------------------------




--------------------------------------- Iteration     18(   3)  ---------------------------------------


    POTLOK:  cpu time    1.7697: real time    1.7727
    SETDIJ:  cpu time    0.0080: real time    0.0076
     EDDAV:  cpu time   11.3323: real time   11.3537
       DOS:  cpu time    0.0000: real time    0.0004
    CHARGE:  cpu time    0.4859: real time    0.4864
    MIXING:  cpu time    0.0470: real time    0.0467
    --------------------------------------------
      LOOP:  cpu time   13.6429: real time   13.6674

 eigenvalue-minimisations  :   120
 total energy-change (2. order) : 0.2900875E-05  (-0.1025609E-05)
 number of electron      56.0000003 magnetization 
 augmentation part       -3.5154246 magnetization 

 Broyden mixing:
  rms(total) = 0.82977E-03    rms(broyden)= 0.82975E-03
  rms(prec ) = 0.88132E-03
  weight for this iteration     100.00

 eigenvalues of (default mixing * dielectric matrix)
  average eigenvalue GAMMA=   1.5763
  1.0764  2.0761

 Free energy of the ion-electron system (eV)
  ---------------------------------------------------
  alpha Z        PSCENC =         1.96423985
  Ewald energy   TEWEN  =      2645.11318302
  -Hartree energ DENC   =     -3578.89704902
  -exchange      EXHF   =         0.00000000
  -V(xc)+E(xc)   XCENC  =       -42.20077811
  PAW double counting   =      4161.84868320    -4000.25059825
  entropy T*S    EENTRO =        -0.00000000
  eigenvalues    EBANDS =      -527.93909576
  atomic energy  EATOM  =      1238.03527989
  Solvation  Ediel_sol  =         0.00000000
  ---------------------------------------------------
  free energy    TOTEN  =      -102.32613518 eV

  energy without entropy =     -102.32613518  energy(sigma->0) =     -102.32613518


--------------------------------------------------------------------------------------------------------




--------------------------------------- Iteration     18(   4)  ---------------------------------------


    POTLOK:  cpu time    1.7507: real time    1.7497
    SETDIJ:  cpu time    0.0080: real time    0.0079
     EDDAV:  cpu time   10.7694: real time   10.7677
       DOS:  cpu time    0.0010: real time    0.0004
    --------------------------------------------
      LOOP:  cpu time   12.5291: real time   12.5256

 eigenvalue-minimisations  :   112
 total energy-change (2. order) : 0.4764415E-06  (-0.3801924E-06)
 number of electron      56.0000003 magnetization 
 augmentation part       -3.5154246 magnetization 

 Free energy of the ion-electron system (eV)
  ---------------------------------------------------
  alpha Z        PSCENC =         1.96423985
  Ewald energy   TEWEN  =      2645.11318302
  -Hartree energ DENC   =     -3578.88650226
  -exchange      EXHF   =         0.00000000
  -V(xc)+E(xc)   XCENC  =       -42.20107291
  PAW double counting   =      4161.24940812    -3999.65097261
  entropy T*S    EENTRO =        -0.00000000
  eigenvalues    EBANDS =      -527.94969779
  atomic energy  EATOM  =      1238.03527989
  Solvation  Ediel_sol  =         0.00000000
  ---------------------------------------------------
  free energy    TOTEN  =      -102.32613470 eV

  energy without entropy =     -102.32613470  energy(sigma->0) =     -102.32613470


--------------------------------------------------------------------------------------------------------




 average (electrostatic) potential at core
  the test charge radii are     0.9892  1.1631  0.5201
  (the norm of the test charge is              1.0000)
       1 -93.3255       2 -93.2731       3 -93.3374       4 -93.4033       5 -93.4033
       6 -93.3409       7 -40.3825       8 -40.3891       9 -40.4257      10 -40.3828
      11 -40.9766      12 -40.9759      13 -41.0049      14 -40.8431      15 -40.8434
      16 -40.8452      17 -40.8441      18 -40.8876      19 -40.8970      20 -40.9758
      21 -40.9755      22 -40.8973      23 -40.8386      24 -40.8384      25 -40.9781
      26 -40.9795
 
 
 
 E-fermi :  -5.4074     XC(G=0):  -0.6059     alpha+bet : -0.3388


 k-point     1 :       0.0000    0.0000    0.0000
  band No.  band energies     occupation 
      1     -15.1248      2.00000
      2     -14.2821      2.00000
      3     -14.1025      2.00000
      4     -13.8803      2.00000
      5     -13.1771      2.00000
      6     -12.8418      2.00000
      7     -11.7672      2.00000
      8     -11.5019      2.00000
      9     -11.3863      2.00000
     10     -10.5256      2.00000
     11      -9.0420      2.00000
     12      -8.6785      2.00000
     13      -8.6370      2.00000
     14      -8.5783      2.00000
     15      -8.2511      2.00000
     16      -8.1459      2.00000
     17      -8.0640      2.00000
     18      -7.9734      2.00000
     19      -7.9308      2.00000
     20      -7.8171      2.00000
     21      -6.8756      2.00000
     22      -6.7850      2.00000
     23      -6.5480      2.00000
     24      -6.4709      2.00000
     25      -6.4518      2.00000
     26      -6.4159      2.00000
     27      -6.3922      2.00000
     28      -6.3275      2.00000
     29      -1.6993      0.00000
     30      -1.4091      0.00000
     31      -1.3651      0.00000
     32      -1.3227      0.00000
     33      -1.1883      0.00000
     34      -1.1453      0.00000
     35      -1.0693      0.00000
     36      -0.8878      0.00000
     37      -0.7412      0.00000
     38      -0.4754      0.00000
     39      -0.4155      0.00000
     40      -0.3017      0.00000
     41      -0.2294      0.00000
     42      -0.1237      0.00000


--------------------------------------------------------------------------------------------------------


 soft charge-density along one line, spin component           1
         0         1         2         3         4         5         6         7         8         9
 total charge-density along one line
 
 pseudopotential strength for first ion, spin component:           1
 19.613  27.371   0.001   0.003   0.001   0.003   0.006   0.002
 27.371  38.202   0.002   0.004   0.002   0.004   0.008   0.003
  0.001   0.002   4.361   0.000   0.000   8.136   0.000   0.000
  0.003   0.004   0.000   4.362   0.000   0.000   8.136   0.000
  0.001   0.002   0.000   0.000   4.361   0.000   0.000   8.135
  0.003   0.004   8.136   0.000   0.000  15.186   0.000   0.001
  0.006   0.008   0.000   8.136   0.000   0.000  15.187   0.001
  0.002   0.003   0.000   0.000   8.135   0.001   0.001  15.185
 total augmentation occupancy for first ion, spin component:           1
  5.925  -2.236   0.004  -0.470  -0.108   0.002   0.147   0.034
 -2.236   0.904  -0.015   0.268   0.057   0.002  -0.066  -0.014
  0.004  -0.015   2.935  -0.186  -0.096  -0.646   0.060   0.027
 -0.470   0.268  -0.186   3.514   0.043   0.060  -0.844  -0.019
 -0.108   0.057  -0.096   0.043   2.995   0.027  -0.019  -0.661
  0.002   0.002  -0.646   0.060   0.027   0.149  -0.017  -0.007
  0.147  -0.066   0.060  -0.844  -0.019  -0.017   0.206   0.006
  0.034  -0.014   0.027  -0.019  -0.661  -0.007   0.006   0.152


------------------------ aborting loop because EDIFF is reached ----------------------------------------


    CHARGE:  cpu time    0.4929: real time    0.4930
    FORLOC:  cpu time    0.1700: real time    0.1709
    FORNL :  cpu time    1.0848: real time    1.0838
    STRESS:  cpu time    8.1118: real time    8.1102
    FORCOR:  cpu time    1.7227: real time    1.7232
    FORHAR:  cpu time    0.5849: real time    0.5842
    MIXING:  cpu time    0.0490: real time    0.0486
    OFIELD:  cpu time    0.0000: real time    0.0000

  FORCE on cell =-STRESS in cart. coord.  units (eV):
  Direction    XX          YY          ZZ          XY          YZ          ZX
  --------------------------------------------------------------------------------------
  Alpha Z     1.96424     1.96424     1.96424
  Ewald     886.90766   875.11305   883.09081     0.54216     2.85111     2.18131
  Hartree  1198.29310  1186.20586  1194.38554     1.91340     3.10361     1.69431
  E(xc)    -177.90594  -178.02489  -177.97632     0.08028     0.03282    -0.02842
  Local   -2589.82347 -2565.54171 -2581.83491    -2.22604    -5.90103    -3.82337
  n-local   274.12827   274.65861   274.27071    -0.58986    -0.30742    -0.05013
  augment   -27.72387   -27.67353   -27.68495     0.00958     0.00817     0.01978
  Kinetic   433.24963   432.30612   432.93950     0.24154     0.20849     0.04519
  Fock        0.00000     0.00000     0.00000     0.00000     0.00000     0.00000
  -------------------------------------------------------------------------------------
  Total      -0.91039    -0.99225    -0.84538    -0.02893    -0.00425     0.03866
  in kB      -0.18233    -0.19872    -0.16931    -0.00579    -0.00085     0.00774
  external pressure =       -0.18 kB  Pullay stress =        0.00 kB


 VOLUME and BASIS-vectors are now :
 -----------------------------------------------------------------------------
  energy-cutoff  :      400.00
  volume of cell :     8000.00
      direct lattice vectors                 reciprocal lattice vectors
    20.000000000  0.000000000  0.000000000     0.050000000  0.000000000  0.000000000
     0.000000000 20.000000000  0.000000000     0.000000000  0.050000000  0.000000000
     0.000000000  0.000000000 20.000000000     0.000000000  0.000000000  0.050000000

  length of vectors
    20.000000000 20.000000000 20.000000000     0.050000000  0.050000000  0.050000000


 FORCES acting on ions
    electron-ion (+dipol)            ewald-force                    non-local-force                 convergence-correction
 -----------------------------------------------------------------------------------------------
   0.115E+02 -.203E+02 0.885E+02   -.120E+02 0.199E+02 -.900E+02   0.501E+00 0.463E+00 0.151E+01   0.976E-03 -.292E-03 -.100E-02
   0.881E+02 -.492E+01 0.466E+02   -.897E+02 0.506E+01 -.474E+02   0.158E+01 -.132E+00 0.775E+00   0.465E-03 -.192E-03 -.432E-03
   -.375E+02 0.551E+02 0.738E+02   0.380E+02 -.558E+02 -.758E+02   -.472E+00 0.679E+00 0.200E+01   0.137E-03 0.592E-03 -.195E-02
   0.807E+02 0.133E+02 -.417E+02   -.825E+02 -.134E+02 0.416E+02   0.177E+01 0.129E+00 0.662E-01   -.116E-03 -.709E-03 -.178E-03
   -.413E+02 -.713E+02 -.406E+02   0.427E+02 0.720E+02 0.415E+02   -.138E+01 -.711E+00 -.867E+00   0.814E-03 0.748E-04 -.609E-03
   -.871E+02 0.722E+01 -.458E+02   0.889E+02 -.665E+01 0.470E+02   -.180E+01 -.577E+00 -.115E+01   0.409E-03 0.935E-03 0.116E-03
   -.299E+02 -.854E+02 0.467E+02   0.301E+02 0.860E+02 -.470E+02   -.193E+00 -.614E+00 0.299E+00   0.369E-03 -.499E-03 -.655E-03
   -.514E+02 0.778E+02 -.100E+02   0.520E+02 -.781E+02 0.986E+01   -.565E+00 0.294E+00 0.155E+00   0.420E-04 -.288E-03 -.634E-03
   0.280E+02 0.853E+02 -.462E+02   -.285E+02 -.859E+02 0.466E+02   0.520E+00 0.579E+00 -.463E+00   -.693E-03 -.119E-03 0.131E-03
   0.372E+02 -.544E+02 -.769E+02   -.374E+02 0.548E+02 0.775E+02   0.270E+00 -.396E+00 -.539E+00   0.388E-03 -.511E-03 -.451E-03
   0.198E+02 0.399E+02 0.561E+01   -.209E+02 -.419E+02 -.667E+01   0.113E+01 0.197E+01 0.107E+01   -.100E-04 0.145E-03 0.135E-04
   0.112E+01 0.217E+02 -.393E+02   -.811E+00 -.223E+02 0.417E+02   -.316E+00 0.540E+00 -.244E+01   -.557E-04 0.130E-04 -.118E-03
   -.260E+02 0.385E+02 -.451E+01   0.274E+02 -.406E+02 0.475E+01   -.137E+01 0.204E+01 -.241E+00   0.127E-03 -.337E-03 -.521E-04
   -.462E+02 -.390E+01 0.578E+01   0.489E+02 0.432E+01 -.701E+01   -.266E+01 -.417E+00 0.123E+01   0.182E-04 0.105E-03 -.619E-04
   -.206E+02 0.833E+01 -.413E+02   0.210E+02 -.897E+01 0.442E+02   -.416E+00 0.642E+00 -.286E+01   0.974E-04 0.127E-03 0.678E-04
   -.367E+02 0.494E+01 0.290E+02   0.393E+02 -.452E+01 -.304E+02   -.261E+01 -.421E+00 0.134E+01   -.217E-03 0.244E-04 -.176E-03
   0.861E+01 0.363E+02 0.287E+02   -.993E+01 -.386E+02 -.300E+02   0.132E+01 0.231E+01 0.130E+01   0.149E-03 0.275E-03 -.266E-03
   0.682E+01 -.104E+02 0.473E+02   -.723E+01 0.110E+02 -.501E+02   0.408E+00 -.630E+00 0.281E+01   0.297E-03 -.140E-03 -.219E-05
   -.224E+02 -.377E+02 -.215E+02   0.237E+02 0.399E+02 0.228E+02   -.132E+01 -.227E+01 -.128E+01   0.136E-03 -.112E-03 -.139E-03
   0.306E+01 -.324E+01 -.448E+02   -.280E+01 0.276E+01 0.473E+02   -.262E+00 0.481E+00 -.245E+01   0.122E-03 -.108E-03 0.482E-04
   0.242E+02 -.366E+02 -.109E+02   -.256E+02 0.387E+02 0.107E+02   0.136E+01 -.210E+01 0.188E+00   -.647E-04 0.371E-04 -.133E-03
   0.435E+02 0.647E+01 -.209E+02   -.461E+02 -.684E+01 0.222E+02   0.261E+01 0.374E+00 -.125E+01   0.111E-03 -.217E-03 0.659E-05
   0.324E+02 0.250E+02 0.237E+02   -.339E+02 -.272E+02 -.250E+02   0.143E+01 0.222E+01 0.132E+01   0.227E-04 -.913E-04 -.145E-03
   0.350E+02 -.293E+02 0.123E+02   -.366E+02 0.317E+02 -.127E+02   0.164E+01 -.243E+01 0.333E+00   -.879E-04 0.108E-03 -.120E-03
   0.125E+02 -.418E+02 0.115E+02   -.139E+02 0.439E+02 -.117E+02   0.136E+01 -.209E+01 0.255E+00   0.119E-03 -.117E-03 -.150E-03
   -.337E+02 -.202E+02 0.228E+02   0.358E+02 0.206E+02 -.239E+02   -.220E+01 -.420E+00 0.113E+01   -.999E-04 -.105E-03 -.200E-04
 -----------------------------------------------------------------------------------------------
   -.349E+00 0.487E+00 -.224E+01   0.711E-14 0.391E-13 -.355E-14   0.345E+00 -.485E+00 0.225E+01   0.346E-02 -.140E-02 -.691E-02
 
 
 POSITION                                       TOTAL-FORCE (eV/Angst)
 -----------------------------------------------------------------------------------
      9.49467     11.09236      7.70252        -0.004452     -0.000614     -0.002699
      7.40373     10.76917      8.73523         0.002156     -0.001082      0.002042
     10.82362      9.16468      7.89918        -0.001026     -0.001999      0.005829
      7.66395     10.30032     11.02472        -0.001596     -0.003581      0.005026
     10.96589     12.46422     11.08705         0.003548      0.000949      0.006894
     12.27425     10.52522     11.30682        -0.003962     -0.002879     -0.001620
     10.62704     12.93467      8.75568         0.001411      0.000777      0.003371
     11.17213      8.68085     10.22644        -0.003772      0.009718      0.005306
      8.98666      8.31307     11.28340         0.003219      0.002400      0.000033
      8.81175     12.11995     12.09835         0.002187     -0.001262      0.001157
      8.28196      7.09084     10.62156         0.005769      0.009398      0.005777
      9.18161      7.97923     12.79256        -0.005121     -0.000286     -0.006891
     12.03704      7.38996     10.37792         0.009305     -0.002035     -0.000910
     13.62076     10.73782     10.68318        -0.004219      0.001778      0.004050
     12.48291     10.20078     12.75469         0.002557     -0.000533      0.001715
     12.14382      9.37985      7.22401         0.000198      0.001988     -0.005385
     10.15291      7.99760      7.24068         0.000967      0.000279     -0.000035
      9.28339     11.41667      6.25202        -0.007116      0.002413     -0.016887
     11.64715     13.62958     11.74459         0.000895     -0.001261      0.002263
      8.97554     11.81907     13.61849        -0.001739     -0.002710     -0.007170
      7.96515     13.42292     11.97894         0.007122     -0.005214     -0.001908
      6.31979     10.10879     11.66559        -0.005392      0.004530     -0.003366
      6.67795      9.63990      8.06669         0.004806     -0.000185      0.002176
      6.57267     12.00558      8.56729         0.000557      0.003850     -0.001832
      9.77948     14.23248      8.59821         0.001114     -0.006079      0.001089
     11.99358     13.19240      8.05255        -0.007414     -0.008362      0.001975
 -----------------------------------------------------------------------------------
    total drift:                               -0.001069      0.001276     -0.001092


--------------------------------------------------------------------------------------------------------



  FREE ENERGIE OF THE ION-ELECTRON SYSTEM (eV)
  ---------------------------------------------------
  free  energy   TOTEN  =      -102.32613470 eV

  energy  without entropy=     -102.32613470  energy(sigma->0) =     -102.32613470
 
 d Force = 0.1665160E-03[ 0.545E-04, 0.279E-03]  d Energy = 0.1651023E-03 0.141E-05
 d Force = 0.4107814E+00[ 0.411E+00, 0.411E+00]  d Ewald  = 0.4107814E+00 0.171E-08


--------------------------------------------------------------------------------------------------------


    POTLOK:  cpu time    1.7537: real time    1.7545


--------------------------------------------------------------------------------------------------------


 Conjugate gradient step on ions:
 trial-energy change:   -0.000165  1 .order   -0.000167   -0.000279   -0.000054
  (g-gl).g = 0.185E-03      g.g   = 0.228E-03  gl.gl    = 0.607E-03
 g(Force)  = 0.228E-03   g(Stress)= 0.000E+00 ortho     = 0.658E-05
 gamma     =   0.30547
 trial     =   1.21188
 opt step  =   1.50632  (harmonic =   1.50632) maximal distance =0.00172237
 next E    =  -102.326143   (d E  =  -0.00017)


--------------------------------------------------------------------------------------------------------


  
 reached required accuracy - stopping structural energy minimisation
 writing wavefunctions
     LOOP+:  cpu time   65.3401: real time   65.8300
    4ORBIT:  cpu time    0.0000: real time    0.0000

 total amount of memory used by VASP MPI-rank0   131440. kBytes
=======================================================================

   base      :      30000. kBytes
   nonl-proj :      17624. kBytes
   fftplans  :      26957. kBytes
   grid      :      48673. kBytes
   one-center:         40. kBytes
   wavefun   :       8146. kBytes
 
  
  
 General timing and accounting informations for this job:
 ========================================================
  
                  Total CPU time used (sec):     2253.718
                            User time (sec):     2225.225
                          System time (sec):       28.494
                         Elapsed time (sec):     2259.895
  
                   Maximum memory used (kb):      186388.
                   Average memory used (kb):           0.
  
                          Minor page faults:      5427733
                          Major page faults:            5
                 Voluntary context switches:         2733
