 vasp.5.4.4.18Apr17-6-g9f103f2a35 (build Nov 06 2017 19:16:10) complex          
  
 executed on           IFC91_ompi date 2018.07.10  04:59:55
 running on   12 total cores
 distrk:  each k-point on   12 cores,    1 groups
 distr:  one band on NCORES_PER_BAND=   6 cores,    2 groups


--------------------------------------------------------------------------------------------------------


 INCAR:
 POTCAR:    PAW_PBE Si 05Jan2001                  
 POTCAR:    PAW_PBE Ge 05Jan2001                  
 POTCAR:    PAW_PBE H 15Jun2001                   
 POTCAR:    PAW_PBE Si 05Jan2001                  
   VRHFIN =Si: s2p2                                                             
   LEXCH  = PE                                                                  
   EATOM  =   103.0669 eV,    7.5752 Ry                                         
                                                                                
   TITEL  = PAW_PBE Si 05Jan2001                                                
   LULTRA =        F    use ultrasoft PP ?                                      
   IUNSCR =        1    unscreen: 0-lin 1-nonlin 2-no                           
   RPACOR =    1.500    partial core radius                                     
   POMASS =   28.085; ZVAL   =    4.000    mass and valenz                      
   RCORE  =    1.900    outmost cutoff radius                                   
   RWIGS  =    2.480; RWIGS  =    1.312    wigner-seitz radius (au A)           
   ENMAX  =  245.345; ENMIN  =  184.009 eV                                      
   ICORE  =        2    local potential                                         
   LCOR   =        T    correct aug charges                                     
   LPAW   =        T    paw PP                                                  
   EAUG   =  322.069                                                            
   DEXC   =    0.000                                                            
   RMAX   =    1.950    core radius for proj-oper                               
   RAUG   =    1.300    factor for augmentation sphere                          
   RDEP   =    1.993    radius for radial grids                                 
   RDEPT  =    1.837    core radius for aug-charge                              
                                                                                
   Atomic configuration                                                         
    6 entries                                                                   
     n  l   j            E        occ.                                          
     1  0  0.50     -1785.8828   2.0000                                         
     2  0  0.50      -139.4969   2.0000                                         
     2  1  1.50       -95.5546   6.0000                                         
     3  0  0.50       -10.8127   2.0000                                         
     3  1  0.50        -4.0811   2.0000                                         
     3  2  1.50        -4.0817   0.0000                                         
   Description                                                                  
     l       E           TYP  RCUT    TYP  RCUT                                 
     0    -10.8127223     23  1.900                                             
     0     -7.6451159     23  1.900                                             
     1     -4.0811372     23  1.900                                             
     1      2.4879257     23  1.900                                             
     2     -4.0817478      7  1.900                                             
  local pseudopotential read in
  partial core-charges read in
  partial kinetic energy density read in
  atomic valenz-charges read in
  non local Contribution for L=           0  read in
    real space projection operators read in
  non local Contribution for L=           0  read in
    real space projection operators read in
  non local Contribution for L=           1  read in
    real space projection operators read in
  non local Contribution for L=           1  read in
    real space projection operators read in
    PAW grid and wavefunctions read in
 
   number of l-projection  operators is LMAX  =           4
   number of lm-projection operators is LMMAX =           8
 
 POTCAR:    PAW_PBE Ge 05Jan2001                  
   VRHFIN =Ge: s2p2                                                             
   LEXCH  = PE                                                                  
   EATOM  =   104.9960 eV,    7.7170 Ry                                         
                                                                                
   TITEL  = PAW_PBE Ge 05Jan2001                                                
   LULTRA =        F    use ultrasoft PP ?                                      
   IUNSCR =        1    unscreen: 0-lin 1-nonlin 2-no                           
   RPACOR =    2.170    partial core radius                                     
   POMASS =   72.610; ZVAL   =    4.000    mass and valenz                      
   RCORE  =    2.300    outmost cutoff radius                                   
   RWIGS  =    2.300; RWIGS  =    1.217    wigner-seitz radius (au A)           
   ENMAX  =  173.807; ENMIN  =  130.355 eV                                      
   ICORE  =        3    local potential                                         
   LCOR   =        T    correct aug charges                                     
   LPAW   =        T    paw PP                                                  
   EAUG   =  385.843                                                            
   DEXC   =    0.000                                                            
   RMAX   =    2.342    core radius for proj-oper                               
   RAUG   =    1.300    factor for augmentation sphere                          
   RDEP   =    2.318    radius for radial grids                                 
   RDEPT  =    2.103    core radius for aug-charge                              
                                                                                
   Atomic configuration                                                         
   10 entries                                                                   
     n  l   j            E        occ.                                          
     1  0  0.50    -10959.8463   2.0000                                         
     2  0  0.50     -1371.6056   2.0000                                         
     2  1  1.50     -1198.4791   6.0000                                         
     3  0  0.50      -168.4733   2.0000                                         
     3  1  1.50      -115.6019   6.0000                                         
     3  2  2.50       -29.3106  10.0000                                         
     4  0  0.50       -11.7309   2.0000                                         
     4  1  0.50        -3.8952   2.0000                                         
     4  2  1.50        -4.0817   0.0000                                         
     4  3  2.50        -4.0817   0.0000                                         
   Description                                                                  
     l       E           TYP  RCUT    TYP  RCUT                                 
     0    -11.7309493     23  2.300                                             
     0     -7.4578696     23  2.300                                             
     1     -3.8952261     23  2.300                                             
     1      6.1178114     23  2.300                                             
     2     -4.0817478     23  2.300                                             
     3     -1.3605826      7  2.300                                             
  local pseudopotential read in
  partial core-charges read in
  partial kinetic energy density read in
  atomic valenz-charges read in
  non local Contribution for L=           0  read in
    real space projection operators read in
  non local Contribution for L=           0  read in
    real space projection operators read in
  non local Contribution for L=           1  read in
    real space projection operators read in
  non local Contribution for L=           1  read in
    real space projection operators read in
  non local Contribution for L=           2  read in
    real space projection operators read in
    PAW grid and wavefunctions read in
 
   number of l-projection  operators is LMAX  =           5
   number of lm-projection operators is LMMAX =          13
 
 POTCAR:    PAW_PBE H 15Jun2001                   
   VRHFIN =H: ultrasoft test                                                    
   LEXCH  = PE                                                                  
   EATOM  =    12.4884 eV,    0.9179 Ry                                         
                                                                                
   TITEL  = PAW_PBE H 15Jun2001                                                 
   LULTRA =        F    use ultrasoft PP ?                                      
   IUNSCR =        0    unscreen: 0-lin 1-nonlin 2-no                           
   RPACOR =    0.000    partial core radius                                     
   POMASS =    1.000; ZVAL   =    1.000    mass and valenz                      
   RCORE  =    1.100    outmost cutoff radius                                   
   RWIGS  =    0.700; RWIGS  =    0.370    wigner-seitz radius (au A)           
   ENMAX  =  250.000; ENMIN  =  200.000 eV                                      
   RCLOC  =    0.701    cutoff for local pot                                    
   LCOR   =        T    correct aug charges                                     
   LPAW   =        T    paw PP                                                  
   EAUG   =  400.000                                                            
   RMAX   =    1.123    core radius for proj-oper                               
   RAUG   =    1.200    factor for augmentation sphere                          
   RDEP   =    1.112    radius for radial grids                                 
   RDEPT  =    0.926    core radius for aug-charge                              
                                                                                
   Atomic configuration                                                         
    2 entries                                                                   
     n  l   j            E        occ.                                          
     1  0  0.50        -6.4927   1.0000                                         
     2  1  0.50        -3.4015   0.0000                                         
   Description                                                                  
     l       E           TYP  RCUT    TYP  RCUT                                 
     0     -6.4927494     23  1.100                                             
     0      6.8029130     23  1.100                                             
     1     -4.0817478     23  1.100                                             
  local pseudopotential read in
  atomic valenz-charges read in
  non local Contribution for L=           0  read in
    real space projection operators read in
  non local Contribution for L=           0  read in
    real space projection operators read in
  non local Contribution for L=           1  read in
    real space projection operators read in
    PAW grid and wavefunctions read in
 
   number of l-projection  operators is LMAX  =           3
   number of lm-projection operators is LMMAX =           5
 

 ----------------------------------------------------------------------------- 
|                                                                             |
|  ADVICE TO THIS USER RUNNING 'VASP/VAMP'   (HEAR YOUR MASTER'S VOICE ...):  |
|                                                                             |
|      You have a (more or less) 'large supercell' and for larger cells       |
|      it might be more efficient to use real space projection opertators     |
|      So try LREAL= Auto  in the INCAR   file.                               |
|      Mind:          For very  accurate calculation you might also keep the  |
|      reciprocal projection scheme          (i.e. LREAL=.FALSE.)             |
|                                                                             |
 ----------------------------------------------------------------------------- 

  PAW_PBE Si 05Jan2001                  :
 energy of atom  1       EATOM= -103.0669
 kinetic energy error for atom=    0.0012 (will be added to EATOM!!)
  PAW_PBE Ge 05Jan2001                  :
 energy of atom  2       EATOM= -104.9960
 kinetic energy error for atom=    0.0003 (will be added to EATOM!!)
  PAW_PBE H 15Jun2001                   :
 energy of atom  3       EATOM=  -12.4884
 kinetic energy error for atom=    0.0098 (will be added to EATOM!!)
 
 
 POSCAR: SiGeH16                                 
  positions in direct lattice
  No initial velocities read in
 exchange correlation table for  LEXCH =        8
   RHO(1)=    0.500       N(1)  =     2000
   RHO(2)=  100.500       N(2)  =     4000
 


--------------------------------------------------------------------------------------------------------


 ion  position               nearest neighbor table
   1  0.475  0.556  0.385-  18 1.55   7 2.39   2 2.39   3 2.39
   2  0.369  0.539  0.436-  23 1.55  24 1.55   4 2.39   1 2.39
   3  0.542  0.457  0.396-  17 1.55  16 1.55   5 2.39   1 2.39
   4  0.385  0.515  0.552-  22 1.55  10 2.39   9 2.39   2 2.39
   5  0.557  0.433  0.512-  13 1.55   3 2.39   6 2.39   9 2.39
   6  0.613  0.525  0.565-  15 1.55  14 1.55   8 2.39   5 2.39
   7  0.531  0.648  0.437-  25 1.55  26 1.55   8 2.39   1 2.39
   8  0.547  0.624  0.554-  19 1.55   7 2.39   6 2.39  10 2.39
   9  0.451  0.416  0.564-  12 1.55  11 1.55   4 2.39   5 2.39
  10  0.440  0.606  0.605-  20 1.55  21 1.55   4 2.39   8 2.39
  11  0.415  0.357  0.529-   9 1.55
  12  0.461  0.400  0.639-   9 1.55
  13  0.600  0.369  0.520-   5 1.55
  14  0.682  0.536  0.531-   6 1.55
  15  0.623  0.509  0.640-   6 1.55
  16  0.611  0.469  0.363-   3 1.55
  17  0.506  0.398  0.362-   3 1.55
  18  0.465  0.572  0.309-   1 1.55
  19  0.583  0.683  0.588-   8 1.55
  20  0.451  0.590  0.680-  10 1.55
  21  0.397  0.670  0.598-  10 1.55
  22  0.316  0.504  0.586-   4 1.55
  23  0.333  0.479  0.402-   2 1.55
  24  0.326  0.603  0.429-   2 1.55
  25  0.488  0.712  0.430-   7 1.55
  26  0.600  0.659  0.404-   7 1.55
 
  LATTYP: Found a simple cubic cell.
 ALAT       =    20.0000000000
  
  Lattice vectors:
  
 A1 = (  20.0000000000,   0.0000000000,   0.0000000000)
 A2 = (   0.0000000000,  20.0000000000,   0.0000000000)
 A3 = (   0.0000000000,   0.0000000000,  20.0000000000)


Analysis of symmetry for initial positions (statically):
=====================================================================
 Subroutine PRICEL returns:
 Original cell was already a primitive cell.
 

 Routine SETGRP: Setting up the symmetry group for a 
 simple cubic supercell.


 Subroutine GETGRP returns: Found  1 space group operations
 (whereof  1 operations were pure point group operations)
 out of a pool of 48 trial point group operations.


The static configuration has the point symmetry C_1 .


Analysis of symmetry for dynamics (positions and initial velocities):
=====================================================================
 Subroutine PRICEL returns:
 Original cell was already a primitive cell.
 

 Routine SETGRP: Setting up the symmetry group for a 
 simple cubic supercell.


 Subroutine GETGRP returns: Found  1 space group operations
 (whereof  1 operations were pure point group operations)
 out of a pool of 48 trial point group operations.


The dynamic configuration has the point symmetry C_1 .


 Subroutine INISYM returns: Found  1 space group operations
 (whereof  1 operations are pure point group operations),
 and found     1 'primitive' translations

 
 
 KPOINTS: Automatic mesh                          

Automatic generation of k-mesh.
Space group operators:
 irot       det(A)        alpha          n_x          n_y          n_z        tau_x        tau_y        tau_z
    1     1.000000     0.000000     1.000000     0.000000     0.000000     0.000000     0.000000     0.000000
 
 Subroutine IBZKPT returns following result:
 ===========================================
 
 Found      1 irreducible k-points:
 
 Following reciprocal coordinates:
            Coordinates               Weight
  0.000000  0.000000  0.000000      1.000000
 
 Following cartesian coordinates:
            Coordinates               Weight
  0.000000  0.000000  0.000000      1.000000
 


--------------------------------------------------------------------------------------------------------




 Dimension of arrays:
   k-points           NKPTS =      1   k-points in BZ     NKDIM =      1   number of bands    NBANDS=     42
   number of dos      NEDOS =    301   number of ions     NIONS =     26
   non local maximal  LDIM  =      5   non local SUM 2l+1 LMDIM =     13
   total plane-waves  NPLWV = 941192
   max r-space proj   IRMAX =      1   max aug-charges    IRDMAX=   6593
   dimension x,y,z NGX =    98 NGY =   98 NGZ =   98
   dimension x,y,z NGXF=   196 NGYF=  196 NGZF=  196
   support grid    NGXF=   196 NGYF=  196 NGZF=  196
   ions per type =               6   4  16
   NGX,Y,Z   is equivalent  to a cutoff of   8.15,  8.15,  8.15 a.u.
   NGXF,Y,Z  is equivalent  to a cutoff of  16.29, 16.29, 16.29 a.u.

 SYSTEM =  SiGe                                    
 POSCAR =  SiGeH16                                 

 Startparameter for this run:
   NWRITE =      2    write-flag & timer
   PREC   = normal    normal or accurate (medium, high low for compatibility)
   ISTART =      0    job   : 0-new  1-cont  2-samecut
   ICHARG =      2    charge: 1-file 2-atom 10-const
   ISPIN  =      1    spin polarized calculation?
   LNONCOLLINEAR =      F non collinear calculations
   LSORBIT =      F    spin-orbit coupling
   INIWAV =      1    electr: 0-lowe 1-rand  2-diag
   LASPH  =      F    aspherical Exc in radial PAW
   METAGGA=      F    non-selfconsistent MetaGGA calc.

 Electronic Relaxation 1
   ENCUT  =  400.0 eV  29.40 Ry    5.42 a.u.  32.61 32.61 32.61*2*pi/ulx,y,z
   ENINI  =  400.0     initial cutoff
   ENAUG  =  400.0 eV  augmentation charge cutoff
   NELM   =     60;   NELMIN=  2; NELMDL= -5     # of ELM steps 
   EDIFF  = 0.1E-05   stopping-criterion for ELM
   LREAL  =      F    real-space projection
   NLSPLINE    = F    spline interpolate recip. space projectors
   LCOMPAT=      F    compatible to vasp.4.4
   GGA_COMPAT  = T    GGA compatible to vasp.4.4-vasp.4.6
   LMAXPAW     = -100 max onsite density
   LMAXMIX     =    2 max onsite mixed and CHGCAR
   VOSKOWN=      0    Vosko Wilk Nusair interpolation
   ROPT   =    0.00000   0.00000   0.00000
 Ionic relaxation
   EDIFFG = -.2E-01   stopping-criterion for IOM
   NSW    =    200    number of steps for IOM
   NBLOCK =      1;   KBLOCK =    200    inner block; outer block 
   IBRION =      2    ionic relax: 0-MD 1-quasi-New 2-CG
   NFREE  =      1    steps in history (QN), initial steepest desc. (CG)
   ISIF   =      2    stress and relaxation
   IWAVPR =     11    prediction:  0-non 1-charg 2-wave 3-comb
   ISYM   =      2    0-nonsym 1-usesym 2-fastsym
   LCORR  =      T    Harris-Foulkes like correction to forces

   POTIM  = 0.5000    time-step for ionic-motion
   TEIN   =    0.0    initial temperature
   TEBEG  =    0.0;   TEEND  =   0.0 temperature during run
   SMASS  =  -3.00    Nose mass-parameter (am)
   estimated Nose-frequenzy (Omega)   =  0.10E-29 period in steps =****** mass=  -0.914E-26a.u.
   SCALEE = 1.0000    scale energy and forces
   NPACO  =    256;   APACO  = 16.0  distance and # of slots for P.C.
   PSTRESS=    0.0 pullay stress

  Mass of Ions in am
   POMASS =  28.09 72.61  1.00
  Ionic Valenz
   ZVAL   =   4.00  4.00  1.00
  Atomic Wigner-Seitz radii
   RWIGS  =  -1.00 -1.00 -1.00
  virtual crystal weights 
   VCA    =   1.00  1.00  1.00
   NELECT =      56.0000    total number of electrons
   NUPDOWN=      -1.0000    fix difference up-down

 DOS related values:
   EMIN   =  10.00;   EMAX   =-10.00  energy-range for DOS
   EFERMI =   0.00
   ISMEAR =     0;   SIGMA  =   0.20  broadening in eV -4-tet -1-fermi 0-gaus

 Electronic relaxation 2 (details)
   IALGO  =     38    algorithm
   LDIAG  =      T    sub-space diagonalisation (order eigenvalues)
   LSUBROT=      F    optimize rotation matrix (better conditioning)
   TURBO    =      0    0=normal 1=particle mesh
   IRESTART =      0    0=no restart 2=restart with 2 vectors
   NREBOOT  =      0    no. of reboots
   NMIN     =      0    reboot dimension
   EREF     =   0.00    reference energy to select bands
   IMIX   =      4    mixing-type and parameters
     AMIX     =   0.40;   BMIX     =  1.00
     AMIX_MAG =   1.60;   BMIX_MAG =  1.00
     AMIN     =   0.10
     WC   =   100.;   INIMIX=   1;  MIXPRE=   1;  MAXMIX= -45

 Intra band minimization:
   WEIMIN = 0.0010     energy-eigenvalue tresh-hold
   EBREAK =  0.60E-08  absolut break condition
   DEPER  =   0.30     relativ break condition  

   TIME   =   0.40     timestep for ELM

  volume/ion in A,a.u.               =     307.69      2076.41
  Fermi-wavevector in a.u.,A,eV,Ry     =   0.313166  0.591797  1.334361  0.098073
  Thomas-Fermi vector in A             =   1.193276
 
 Write flags
   LWAVE        =      T    write WAVECAR
   LDOWNSAMPLE  =      F    k-point downsampling of WAVECAR
   LCHARG       =      T    write CHGCAR
   LVTOT        =      F    write LOCPOT, total local potential
   LVHAR        =      F    write LOCPOT, Hartree potential only
   LELF         =      F    write electronic localiz. function (ELF)
   LORBIT       =      0    0 simple, 1 ext, 2 COOP (PROOUT), +10 PAW based schemes


 Dipole corrections
   LMONO  =      F    monopole corrections only (constant potential shift)
   LDIPOL =      F    correct potential (dipole corrections)
   IDIPOL =      0    1-x, 2-y, 3-z, 4-all directions 
   EPSILON=  1.0000000 bulk dielectric constant

 Exchange correlation treatment:
   GGA     =    --    GGA type
   LEXCH   =     8    internal setting for exchange type
   VOSKOWN=      0    Vosko Wilk Nusair interpolation
   LHFCALC =     F    Hartree Fock is set to
   LHFONE  =     F    Hartree Fock one center treatment
   AEXX    =    0.0000 exact exchange contribution

 Linear response parameters
   LEPSILON=     F    determine dielectric tensor
   LRPA    =     F    only Hartree local field effects (RPA)
   LNABLA  =     F    use nabla operator in PAW spheres
   LVEL    =     F    velocity operator in full k-point grid
   LINTERFAST=   F  fast interpolation
   KINTER  =     0    interpolate to denser k-point grid
   CSHIFT  =0.1000    complex shift for real part using Kramers Kronig
   OMEGAMAX=  -1.0    maximum frequency
   DEG_THRESHOLD= 0.2000000E-02 threshold for treating states as degnerate
   RTIME   =   -0.100 relaxation time in fs
  (WPLASMAI=    0.000 imaginary part of plasma frequency in eV, 0.658/RTIME)
   DFIELD  = 0.0000000 0.0000000 0.0000000 field for delta impulse in time
 
 Orbital magnetization related:
   ORBITALMAG=     F  switch on orbital magnetization
   LCHIMAG   =     F  perturbation theory with respect to B field
   DQ        =  0.001000  dq finite difference perturbation B field
   LLRAUG    =     F  two centre corrections for induced B field



--------------------------------------------------------------------------------------------------------


 conjugate gradient relaxation of ions
 charge density and potential will be updated during run
 non-spin polarized calculation
 Variant of blocked Davidson
 Davidson routine will perform the subspace rotation
 perform sub-space diagonalisation
    after iterative eigenvector-optimisation
 modified Broyden-mixing scheme, WC =      100.0
 initial mixing is a Kerker type mixing with AMIX =  0.4000 and BMIX =      1.0000
 Hartree-type preconditioning will be used
 using additional bands           14
 reciprocal scheme for non local part
 use partial core corrections
 calculate Harris-corrections to forces 
   (improved forces if not selfconsistent)
 use gradient corrections 
 use of overlap-Matrix (Vanderbilt PP)
 Gauss-broadening in eV      SIGMA  =   0.20


--------------------------------------------------------------------------------------------------------


  energy-cutoff  :      400.00
  volume of cell :     8000.00
      direct lattice vectors                 reciprocal lattice vectors
    20.000000000  0.000000000  0.000000000     0.050000000  0.000000000  0.000000000
     0.000000000 20.000000000  0.000000000     0.000000000  0.050000000  0.000000000
     0.000000000  0.000000000 20.000000000     0.000000000  0.000000000  0.050000000

  length of vectors
    20.000000000 20.000000000 20.000000000     0.050000000  0.050000000  0.050000000


 
 k-points in units of 2pi/SCALE and weight: Automatic mesh                          
   0.00000000  0.00000000  0.00000000       1.000
 
 k-points in reciprocal lattice and weights: Automatic mesh                          
   0.00000000  0.00000000  0.00000000       1.000
 
 position of ions in fractional coordinates (direct lattice) 
   0.47547100  0.55626000  0.38465300
   0.36907800  0.53906000  0.43641200
   0.54179100  0.45744600  0.39613600
   0.38461900  0.51474100  0.55243500
   0.55736800  0.43311000  0.51215000
   0.61299700  0.52481700  0.56496600
   0.53111600  0.64794100  0.43749600
   0.54669200  0.62364400  0.55351800
   0.45095700  0.41593600  0.56388300
   0.44028400  0.60643000  0.60524300
   0.41490100  0.35665000  0.52940300
   0.46117000  0.40042600  0.63910800
   0.60034800  0.36907000  0.51957800
   0.68182700  0.53600700  0.53118700
   0.62280400  0.50903400  0.64018900
   0.61080000  0.46880600  0.36278200
   0.50550800  0.39805500  0.36207700
   0.46538400  0.57201900  0.30946400
   0.58275500  0.68306700  0.58775000
   0.45052500  0.59044300  0.68036400
   0.39732000  0.67044900  0.59753500
   0.31566200  0.50359800  0.58596500
   0.33322800  0.47946500  0.40225200
   0.32629100  0.60324700  0.42912600
   0.48792300  0.71185500  0.43020800
   0.60015100  0.65882400  0.40403700
 
 position of ions in cartesian coordinates  (Angst):
   9.50942000 11.12520000  7.69306000
   7.38156000 10.78120000  8.72824000
  10.83582000  9.14892000  7.92272000
   7.69238000 10.29482000 11.04870000
  11.14736000  8.66220000 10.24300000
  12.25994000 10.49634000 11.29932000
  10.62232000 12.95882000  8.74992000
  10.93384000 12.47288000 11.07036000
   9.01914000  8.31872000 11.27766000
   8.80568000 12.12860000 12.10486000
   8.29802000  7.13300000 10.58806000
   9.22340000  8.00852000 12.78216000
  12.00696000  7.38140000 10.39156000
  13.63654000 10.72014000 10.62374000
  12.45608000 10.18068000 12.80378000
  12.21600000  9.37612000  7.25564000
  10.11016000  7.96110000  7.24154000
   9.30768000 11.44038000  6.18928000
  11.65510000 13.66134000 11.75500000
   9.01050000 11.80886000 13.60728000
   7.94640000 13.40898000 11.95070000
   6.31324000 10.07196000 11.71930000
   6.66456000  9.58930000  8.04504000
   6.52582000 12.06494000  8.58252000
   9.75846000 14.23710000  8.60416000
  12.00302000 13.17648000  8.08074000
 


--------------------------------------------------------------------------------------------------------


 k-point  1 :   0.0000 0.0000 0.0000  plane waves:  145165

 maximum and minimum number of plane-waves per node :     24209    24180

 maximum number of plane-waves:    145165
 maximum index in each direction: 
   IXMAX=   32   IYMAX=   32   IZMAX=   32
   IXMIN=  -32   IYMIN=  -32   IZMIN=  -32


 parallel 3D FFT for wavefunctions:
    minimum data exchange during FFTs selected (reduces bandwidth)
 parallel 3D FFT for charge:
    minimum data exchange during FFTs selected (reduces bandwidth)


 total amount of memory used by VASP MPI-rank0   131440. kBytes
=======================================================================

   base      :      30000. kBytes
   nonl-proj :      17624. kBytes
   fftplans  :      26957. kBytes
   grid      :      48673. kBytes
   one-center:         40. kBytes
   wavefun   :       8146. kBytes
 
     INWAV:  cpu time    0.0010: real time    0.0000
 Broyden mixing: mesh for mixing (old mesh)
   NGX = 65   NGY = 65   NGZ = 65
  (NGX  =196   NGY  =196   NGZ  =196)
  gives a total of 274625 points

 initial charge density was supplied:
 charge density of overlapping atoms calculated
 number of electron      56.0000000 magnetization 
 keeping initial charge density in first step


--------------------------------------------------------------------------------------------------------


 Maximum index for augmentation-charges          565 (set IRDMAX)


--------------------------------------------------------------------------------------------------------


 First call to EWALD:  gamma=   0.089
 Maximum number of real-space cells 3x 3x 3
 Maximum number of reciprocal cells 3x 3x 3

    FEWALD:  cpu time    0.0030: real time    0.0031


--------------------------------------- Iteration      1(   1)  ---------------------------------------


    POTLOK:  cpu time    1.7787: real time    1.7807
    SETDIJ:  cpu time    0.0140: real time    0.0138
     EDDAV:  cpu time   11.0033: real time   11.0044
       DOS:  cpu time    0.0000: real time    0.0003
    --------------------------------------------
      LOOP:  cpu time   12.7961: real time   12.7992

 eigenvalue-minimisations  :   116
 total energy-change (2. order) : 0.2013035E+03  (-0.1048895E+04)
 number of electron      56.0000000 magnetization 
 augmentation part       56.0000000 magnetization 

 Free energy of the ion-electron system (eV)
  ---------------------------------------------------
  alpha Z        PSCENC =         1.96423985
  Ewald energy   TEWEN  =      2629.98113996
  -Hartree energ DENC   =     -3442.44063056
  -exchange      EXHF   =         0.00000000
  -V(xc)+E(xc)   XCENC  =       -53.18891822
  PAW double counting   =       915.46801746     -752.10009045
  entropy T*S    EENTRO =        -0.44000321
  eigenvalues    EBANDS =      -335.97557610
  atomic energy  EATOM  =      1238.03527989
  Solvation  Ediel_sol  =         0.00000000
  ---------------------------------------------------
  free energy    TOTEN  =       201.30345862 eV

  energy without entropy =      201.74346182  energy(sigma->0) =      201.52346022


--------------------------------------------------------------------------------------------------------




--------------------------------------- Iteration      1(   2)  ---------------------------------------


     EDDAV:  cpu time   13.1270: real time   13.1272
       DOS:  cpu time    0.0000: real time    0.0003
    --------------------------------------------
      LOOP:  cpu time   13.1270: real time   13.1275

 eigenvalue-minimisations  :   144
 total energy-change (2. order) :-0.2297286E+03  (-0.2150141E+03)
 number of electron      56.0000000 magnetization 
 augmentation part       56.0000000 magnetization 

 Free energy of the ion-electron system (eV)
  ---------------------------------------------------
  alpha Z        PSCENC =         1.96423985
  Ewald energy   TEWEN  =      2629.98113996
  -Hartree energ DENC   =     -3442.44063056
  -exchange      EXHF   =         0.00000000
  -V(xc)+E(xc)   XCENC  =       -53.18891822
  PAW double counting   =       915.46801746     -752.10009045
  entropy T*S    EENTRO =        -0.00000000
  eigenvalues    EBANDS =      -566.14422570
  atomic energy  EATOM  =      1238.03527989
  Solvation  Ediel_sol  =         0.00000000
  ---------------------------------------------------
  free energy    TOTEN  =       -28.42518777 eV

  energy without entropy =      -28.42518777  energy(sigma->0) =      -28.42518777


--------------------------------------------------------------------------------------------------------




--------------------------------------- Iteration      1(   3)  ---------------------------------------


     EDDAV:  cpu time   11.0813: real time   11.0813
       DOS:  cpu time    0.0000: real time    0.0002
    --------------------------------------------
      LOOP:  cpu time   11.0813: real time   11.0816

 eigenvalue-minimisations  :   112
 total energy-change (2. order) :-0.7430953E+02  (-0.7412302E+02)
 number of electron      56.0000000 magnetization 
 augmentation part       56.0000000 magnetization 

 Free energy of the ion-electron system (eV)
  ---------------------------------------------------
  alpha Z        PSCENC =         1.96423985
  Ewald energy   TEWEN  =      2629.98113996
  -Hartree energ DENC   =     -3442.44063056
  -exchange      EXHF   =         0.00000000
  -V(xc)+E(xc)   XCENC  =       -53.18891822
  PAW double counting   =       915.46801746     -752.10009045
  entropy T*S    EENTRO =        -0.00000000
  eigenvalues    EBANDS =      -640.45375502
  atomic energy  EATOM  =      1238.03527989
  Solvation  Ediel_sol  =         0.00000000
  ---------------------------------------------------
  free energy    TOTEN  =      -102.73471709 eV

  energy without entropy =     -102.73471709  energy(sigma->0) =     -102.73471709


--------------------------------------------------------------------------------------------------------




--------------------------------------- Iteration      1(   4)  ---------------------------------------


     EDDAV:  cpu time   10.1365: real time   10.1347
       DOS:  cpu time    0.0000: real time    0.0002
    --------------------------------------------
      LOOP:  cpu time   10.1365: real time   10.1349

 eigenvalue-minimisations  :   104
 total energy-change (2. order) :-0.4238578E+01  (-0.4222115E+01)
 number of electron      56.0000000 magnetization 
 augmentation part       56.0000000 magnetization 

 Free energy of the ion-electron system (eV)
  ---------------------------------------------------
  alpha Z        PSCENC =         1.96423985
  Ewald energy   TEWEN  =      2629.98113996
  -Hartree energ DENC   =     -3442.44063056
  -exchange      EXHF   =         0.00000000
  -V(xc)+E(xc)   XCENC  =       -53.18891822
  PAW double counting   =       915.46801746     -752.10009045
  entropy T*S    EENTRO =        -0.00000000
  eigenvalues    EBANDS =      -644.69233294
  atomic energy  EATOM  =      1238.03527989
  Solvation  Ediel_sol  =         0.00000000
  ---------------------------------------------------
  free energy    TOTEN  =      -106.97329501 eV

  energy without entropy =     -106.97329501  energy(sigma->0) =     -106.97329501


--------------------------------------------------------------------------------------------------------




--------------------------------------- Iteration      1(   5)  ---------------------------------------


     EDDAV:  cpu time   13.1360: real time   13.1305
       DOS:  cpu time    0.0000: real time    0.0003
    CHARGE:  cpu time    0.4839: real time    0.4835
    MIXING:  cpu time    0.0440: real time    0.0441
    --------------------------------------------
      LOOP:  cpu time   13.6639: real time   13.6584

 eigenvalue-minimisations  :   144
 total energy-change (2. order) :-0.8210711E-01  (-0.8206789E-01)
 number of electron      56.0000024 magnetization 
 augmentation part       -3.5386940 magnetization 

 Broyden mixing:
  rms(total) = 0.15024E+01    rms(broyden)= 0.15023E+01
  rms(prec ) = 0.15986E+01
  weight for this iteration     100.00

 Free energy of the ion-electron system (eV)
  ---------------------------------------------------
  alpha Z        PSCENC =         1.96423985
  Ewald energy   TEWEN  =      2629.98113996
  -Hartree energ DENC   =     -3442.44063056
  -exchange      EXHF   =         0.00000000
  -V(xc)+E(xc)   XCENC  =       -53.18891822
  PAW double counting   =       915.46801746     -752.10009045
  entropy T*S    EENTRO =        -0.00000000
  eigenvalues    EBANDS =      -644.77444004
  atomic energy  EATOM  =      1238.03527989
  Solvation  Ediel_sol  =         0.00000000
  ---------------------------------------------------
  free energy    TOTEN  =      -107.05540211 eV

  energy without entropy =     -107.05540211  energy(sigma->0) =     -107.05540211


--------------------------------------------------------------------------------------------------------




--------------------------------------- Iteration      1(   6)  ---------------------------------------


    POTLOK:  cpu time    1.7067: real time    1.7107
    SETDIJ:  cpu time    0.0080: real time    0.0076
     EDDAV:  cpu time    9.5316: real time    9.5284
       DOS:  cpu time    0.0000: real time    0.0004
    CHARGE:  cpu time    0.4909: real time    0.4904
    MIXING:  cpu time    0.0460: real time    0.0457
    --------------------------------------------
      LOOP:  cpu time   11.7832: real time   11.7832

 eigenvalue-minimisations  :    96
 total energy-change (2. order) : 0.3219538E+01  (-0.1562285E+00)
 number of electron      56.0000023 magnetization 
 augmentation part       -3.5399698 magnetization 

 Broyden mixing:
  rms(total) = 0.87240E+00    rms(broyden)= 0.87240E+00
  rms(prec ) = 0.93096E+00
  weight for this iteration     100.00

 eigenvalues of (default mixing * dielectric matrix)
  average eigenvalue GAMMA=   2.3134
  2.3134

 Free energy of the ion-electron system (eV)
  ---------------------------------------------------
  alpha Z        PSCENC =         1.96423985
  Ewald energy   TEWEN  =      2629.98113996
  -Hartree energ DENC   =     -3473.85803334
  -exchange      EXHF   =         0.00000000
  -V(xc)+E(xc)   XCENC  =       -49.55527282
  PAW double counting   =      1841.93133881    -1679.33897481
  entropy T*S    EENTRO =        -0.00000000
  eigenvalues    EBANDS =      -612.99558159
  atomic energy  EATOM  =      1238.03527989
  Solvation  Ediel_sol  =         0.00000000
  ---------------------------------------------------
  free energy    TOTEN  =      -103.83586405 eV

  energy without entropy =     -103.83586405  energy(sigma->0) =     -103.83586405


--------------------------------------------------------------------------------------------------------




--------------------------------------- Iteration      1(   7)  ---------------------------------------


    POTLOK:  cpu time    1.7067: real time    1.7069
    SETDIJ:  cpu time    0.0070: real time    0.0075
     EDDAV:  cpu time   10.7064: real time   10.7014
       DOS:  cpu time    0.0000: real time    0.0003
    CHARGE:  cpu time    0.4809: real time    0.4812
    MIXING:  cpu time    0.0480: real time    0.0478
    --------------------------------------------
      LOOP:  cpu time   12.9490: real time   12.9451

 eigenvalue-minimisations  :   112
 total energy-change (2. order) : 0.1691251E+01  (-0.4111846E+00)
 number of electron      56.0000021 magnetization 
 augmentation part       -3.5403592 magnetization 

 Broyden mixing:
  rms(total) = 0.12314E+00    rms(broyden)= 0.12299E+00
  rms(prec ) = 0.15423E+00
  weight for this iteration     100.00

 eigenvalues of (default mixing * dielectric matrix)
  average eigenvalue GAMMA=   1.8388
  1.7015  1.9761

 Free energy of the ion-electron system (eV)
  ---------------------------------------------------
  alpha Z        PSCENC =         1.96423985
  Ewald energy   TEWEN  =      2629.98113996
  -Hartree energ DENC   =     -3529.96599948
  -exchange      EXHF   =         0.00000000
  -V(xc)+E(xc)   XCENC  =       -43.77059985
  PAW double counting   =      3899.27155346    -3737.72037001
  entropy T*S    EENTRO =        -0.00000000
  eigenvalues    EBANDS =      -559.93985734
  atomic energy  EATOM  =      1238.03527989
  Solvation  Ediel_sol  =         0.00000000
  ---------------------------------------------------
  free energy    TOTEN  =      -102.14461352 eV

  energy without entropy =     -102.14461352  energy(sigma->0) =     -102.14461352


--------------------------------------------------------------------------------------------------------




--------------------------------------- Iteration      1(   8)  ---------------------------------------


    POTLOK:  cpu time    1.7177: real time    1.7166
    SETDIJ:  cpu time    0.0070: real time    0.0076
     EDDAV:  cpu time   10.1985: real time   10.1942
       DOS:  cpu time    0.0000: real time    0.0003
    CHARGE:  cpu time    0.4849: real time    0.4847
    MIXING:  cpu time    0.0500: real time    0.0501
    --------------------------------------------
      LOOP:  cpu time   12.4581: real time   12.4535

 eigenvalue-minimisations  :   104
 total energy-change (2. order) : 0.5183159E-01  (-0.2712429E-01)
 number of electron      56.0000021 magnetization 
 augmentation part       -3.5369271 magnetization 

 Broyden mixing:
  rms(total) = 0.61981E-01    rms(broyden)= 0.61966E-01
  rms(prec ) = 0.81251E-01
  weight for this iteration     100.00

 eigenvalues of (default mixing * dielectric matrix)
  average eigenvalue GAMMA=   1.9733
  2.6281  1.6459  1.6459

 Free energy of the ion-electron system (eV)
  ---------------------------------------------------
  alpha Z        PSCENC =         1.96423985
  Ewald energy   TEWEN  =      2629.98113996
  -Hartree energ DENC   =     -3537.70064319
  -exchange      EXHF   =         0.00000000
  -V(xc)+E(xc)   XCENC  =       -43.82567237
  PAW double counting   =      3912.08547008    -3750.44411127
  entropy T*S    EENTRO =        -0.00000000
  eigenvalues    EBANDS =      -552.18848488
  atomic energy  EATOM  =      1238.03527989
  Solvation  Ediel_sol  =         0.00000000
  ---------------------------------------------------
  free energy    TOTEN  =      -102.09278193 eV

  energy without entropy =     -102.09278193  energy(sigma->0) =     -102.09278193


--------------------------------------------------------------------------------------------------------




--------------------------------------- Iteration      1(   9)  ---------------------------------------


    POTLOK:  cpu time    1.7257: real time    1.7407
    SETDIJ:  cpu time    0.0080: real time    0.0076
     EDDAV:  cpu time   11.3853: real time   11.3820
       DOS:  cpu time    0.0000: real time    0.0003
    CHARGE:  cpu time    0.4849: real time    0.4908
    MIXING:  cpu time    0.0530: real time    0.0526
    --------------------------------------------
      LOOP:  cpu time   13.6569: real time   13.6741

 eigenvalue-minimisations  :   120
 total energy-change (2. order) : 0.3526007E-01  (-0.7529929E-02)
 number of electron      56.0000021 magnetization 
 augmentation part       -3.5244430 magnetization 

 Broyden mixing:
  rms(total) = 0.33657E-01    rms(broyden)= 0.33657E-01
  rms(prec ) = 0.45310E-01
  weight for this iteration     100.00

 eigenvalues of (default mixing * dielectric matrix)
  average eigenvalue GAMMA=   1.7433
  2.4913  1.8323  1.8323  0.8172

 Free energy of the ion-electron system (eV)
  ---------------------------------------------------
  alpha Z        PSCENC =         1.96423985
  Ewald energy   TEWEN  =      2629.98113996
  -Hartree energ DENC   =     -3549.39342024
  -exchange      EXHF   =         0.00000000
  -V(xc)+E(xc)   XCENC  =       -43.14304248
  PAW double counting   =      4043.97800899    -3882.36816212
  entropy T*S    EENTRO =        -0.00000000
  eigenvalues    EBANDS =      -541.11156571
  atomic energy  EATOM  =      1238.03527989
  Solvation  Ediel_sol  =         0.00000000
  ---------------------------------------------------
  free energy    TOTEN  =      -102.05752187 eV

  energy without entropy =     -102.05752187  energy(sigma->0) =     -102.05752187


--------------------------------------------------------------------------------------------------------




--------------------------------------- Iteration      1(  10)  ---------------------------------------


    POTLOK:  cpu time    1.7297: real time    1.7309
    SETDIJ:  cpu time    0.0080: real time    0.0075
     EDDAV:  cpu time   10.7744: real time   10.7753
       DOS:  cpu time    0.0010: real time    0.0003
    CHARGE:  cpu time    0.4829: real time    0.4838
    MIXING:  cpu time    0.0550: real time    0.0551
    --------------------------------------------
      LOOP:  cpu time   13.0510: real time   13.0529

 eigenvalue-minimisations  :   112
 total energy-change (2. order) : 0.2022385E-04  (-0.2817620E-03)
 number of electron      56.0000021 magnetization 
 augmentation part       -3.5237522 magnetization 

 Broyden mixing:
  rms(total) = 0.16068E-01    rms(broyden)= 0.16068E-01
  rms(prec ) = 0.29182E-01
  weight for this iteration     100.00

 eigenvalues of (default mixing * dielectric matrix)
  average eigenvalue GAMMA=   1.8517
  2.6831  2.1913  1.0963  1.6438  1.6438

 Free energy of the ion-electron system (eV)
  ---------------------------------------------------
  alpha Z        PSCENC =         1.96423985
  Ewald energy   TEWEN  =      2629.98113996
  -Hartree energ DENC   =     -3551.52198431
  -exchange      EXHF   =         0.00000000
  -V(xc)+E(xc)   XCENC  =       -43.14222038
  PAW double counting   =      3966.62372003    -3804.96691914
  entropy T*S    EENTRO =        -0.00000000
  eigenvalues    EBANDS =      -539.03075754
  atomic energy  EATOM  =      1238.03527989
  Solvation  Ediel_sol  =         0.00000000
  ---------------------------------------------------
  free energy    TOTEN  =      -102.05750164 eV

  energy without entropy =     -102.05750164  energy(sigma->0) =     -102.05750164


--------------------------------------------------------------------------------------------------------




--------------------------------------- Iteration      1(  11)  ---------------------------------------


    POTLOK:  cpu time    1.7417: real time    1.7419
    SETDIJ:  cpu time    0.0080: real time    0.0076
     EDDAV:  cpu time   10.1645: real time   10.1621
       DOS:  cpu time    0.0000: real time    0.0003
    CHARGE:  cpu time    0.4869: real time    0.4855
    MIXING:  cpu time    0.0580: real time    0.0577
    --------------------------------------------
      LOOP:  cpu time   12.4591: real time   12.4551

 eigenvalue-minimisations  :   104
 total energy-change (2. order) : 0.2823661E-03  (-0.6468496E-03)
 number of electron      56.0000021 magnetization 
 augmentation part       -3.5227413 magnetization 

 Broyden mixing:
  rms(total) = 0.79110E-02    rms(broyden)= 0.79107E-02
  rms(prec ) = 0.14654E-01
  weight for this iteration     100.00

 eigenvalues of (default mixing * dielectric matrix)
  average eigenvalue GAMMA=   1.8577
  3.2132  2.5479  1.7310  1.7310  1.0531  0.8702

 Free energy of the ion-electron system (eV)
  ---------------------------------------------------
  alpha Z        PSCENC =         1.96423985
  Ewald energy   TEWEN  =      2629.98113996
  -Hartree energ DENC   =     -3558.30035693
  -exchange      EXHF   =         0.00000000
  -V(xc)+E(xc)   XCENC  =       -42.94917044
  PAW double counting   =      3922.09383411    -3760.39473399
  entropy T*S    EENTRO =        -0.00000000
  eigenvalues    EBANDS =      -532.48745172
  atomic energy  EATOM  =      1238.03527989
  Solvation  Ediel_sol  =         0.00000000
  ---------------------------------------------------
  free energy    TOTEN  =      -102.05721928 eV

  energy without entropy =     -102.05721928  energy(sigma->0) =     -102.05721928


--------------------------------------------------------------------------------------------------------




--------------------------------------- Iteration      1(  12)  ---------------------------------------


    POTLOK:  cpu time    1.7397: real time    1.7405
    SETDIJ:  cpu time    0.0080: real time    0.0078
     EDDAV:  cpu time   10.1475: real time   10.1438
       DOS:  cpu time    0.0000: real time    0.0003
    CHARGE:  cpu time    0.4869: real time    0.4860
    MIXING:  cpu time    0.0600: real time    0.0604
    --------------------------------------------
      LOOP:  cpu time   12.4421: real time   12.4388

 eigenvalue-minimisations  :   104
 total energy-change (2. order) :-0.3798561E-02  (-0.1061420E-03)
 number of electron      56.0000021 magnetization 
 augmentation part       -3.5222394 magnetization 

 Broyden mixing:
  rms(total) = 0.59365E-02    rms(broyden)= 0.59365E-02
  rms(prec ) = 0.10315E-01
  weight for this iteration     100.00

 eigenvalues of (default mixing * dielectric matrix)
  average eigenvalue GAMMA=   2.0655
  4.4774  2.4543  2.4543  1.5653  1.5653  0.9709  0.9709

 Free energy of the ion-electron system (eV)
  ---------------------------------------------------
  alpha Z        PSCENC =         1.96423985
  Ewald energy   TEWEN  =      2629.98113996
  -Hartree energ DENC   =     -3560.60845633
  -exchange      EXHF   =         0.00000000
  -V(xc)+E(xc)   XCENC  =       -42.90680348
  PAW double counting   =      3913.97288844    -3752.26998881
  entropy T*S    EENTRO =        -0.00000000
  eigenvalues    EBANDS =      -530.22931735
  atomic energy  EATOM  =      1238.03527989
  Solvation  Ediel_sol  =         0.00000000
  ---------------------------------------------------
  free energy    TOTEN  =      -102.06101784 eV

  energy without entropy =     -102.06101784  energy(sigma->0) =     -102.06101784


--------------------------------------------------------------------------------------------------------




--------------------------------------- Iteration      1(  13)  ---------------------------------------


    POTLOK:  cpu time    1.7437: real time    1.7432
    SETDIJ:  cpu time    0.0120: real time    0.0120
     EDDAV:  cpu time   10.1545: real time   10.1515
       DOS:  cpu time    0.0000: real time    0.0003
    CHARGE:  cpu time    0.4849: real time    0.4834
    MIXING:  cpu time    0.0640: real time    0.0647
    --------------------------------------------
      LOOP:  cpu time   12.4601: real time   12.4551

 eigenvalue-minimisations  :   104
 total energy-change (2. order) :-0.5128631E-02  (-0.2003768E-03)
 number of electron      56.0000021 magnetization 
 augmentation part       -3.5220710 magnetization 

 Broyden mixing:
  rms(total) = 0.34941E-02    rms(broyden)= 0.34940E-02
  rms(prec ) = 0.52389E-02
  weight for this iteration     100.00

 eigenvalues of (default mixing * dielectric matrix)
  average eigenvalue GAMMA=   2.1920
  5.6843  2.9170  2.3147  1.7881  1.7881  1.1261  0.9590  0.9590

 Free energy of the ion-electron system (eV)
  ---------------------------------------------------
  alpha Z        PSCENC =         1.96423985
  Ewald energy   TEWEN  =      2629.98113996
  -Hartree energ DENC   =     -3563.58638071
  -exchange      EXHF   =         0.00000000
  -V(xc)+E(xc)   XCENC  =       -42.85272593
  PAW double counting   =      3919.47308315    -3757.77811388
  entropy T*S    EENTRO =        -0.00000000
  eigenvalues    EBANDS =      -527.30266880
  atomic energy  EATOM  =      1238.03527989
  Solvation  Ediel_sol  =         0.00000000
  ---------------------------------------------------
  free energy    TOTEN  =      -102.06614647 eV

  energy without entropy =     -102.06614647  energy(sigma->0) =     -102.06614647


--------------------------------------------------------------------------------------------------------




--------------------------------------- Iteration      1(  14)  ---------------------------------------


    POTLOK:  cpu time    1.7597: real time    1.7713
    SETDIJ:  cpu time    0.0070: real time    0.0077
     EDDAV:  cpu time   10.8134: real time   10.8092
       DOS:  cpu time    0.0000: real time    0.0003
    CHARGE:  cpu time    0.4899: real time    0.4887
    MIXING:  cpu time    0.0690: real time    0.0698
    --------------------------------------------
      LOOP:  cpu time   13.1380: real time   13.1469

 eigenvalue-minimisations  :   112
 total energy-change (2. order) :-0.3897315E-02  (-0.3086053E-04)
 number of electron      56.0000021 magnetization 
 augmentation part       -3.5216334 magnetization 

 Broyden mixing:
  rms(total) = 0.16403E-02    rms(broyden)= 0.16402E-02
  rms(prec ) = 0.28114E-02
  weight for this iteration     100.00

 eigenvalues of (default mixing * dielectric matrix)
  average eigenvalue GAMMA=   2.2783
  6.4631  2.8113  2.8113  2.1993  1.6192  1.6192  1.0538  0.9636  0.9636

 Free energy of the ion-electron system (eV)
  ---------------------------------------------------
  alpha Z        PSCENC =         1.96423985
  Ewald energy   TEWEN  =      2629.98113996
  -Hartree energ DENC   =     -3564.29995292
  -exchange      EXHF   =         0.00000000
  -V(xc)+E(xc)   XCENC  =       -42.86549440
  PAW double counting   =      3917.95395346    -3756.25978095
  entropy T*S    EENTRO =        -0.00000000
  eigenvalues    EBANDS =      -526.57942867
  atomic energy  EATOM  =      1238.03527989
  Solvation  Ediel_sol  =         0.00000000
  ---------------------------------------------------
  free energy    TOTEN  =      -102.07004378 eV

  energy without entropy =     -102.07004378  energy(sigma->0) =     -102.07004378


--------------------------------------------------------------------------------------------------------




--------------------------------------- Iteration      1(  15)  ---------------------------------------


    POTLOK:  cpu time    1.7387: real time    1.7379
    SETDIJ:  cpu time    0.0080: real time    0.0076
     EDDAV:  cpu time   10.7814: real time   10.7847
       DOS:  cpu time    0.0000: real time    0.0003
    CHARGE:  cpu time    0.4849: real time    0.4841
    MIXING:  cpu time    0.0780: real time    0.0781
    --------------------------------------------
      LOOP:  cpu time   13.0910: real time   13.0927

 eigenvalue-minimisations  :   112
 total energy-change (2. order) :-0.4615135E-02  (-0.5837130E-04)
 number of electron      56.0000021 magnetization 
 augmentation part       -3.5213487 magnetization 

 Broyden mixing:
  rms(total) = 0.16493E-02    rms(broyden)= 0.16492E-02
  rms(prec ) = 0.20723E-02
  weight for this iteration     100.00

 eigenvalues of (default mixing * dielectric matrix)
  average eigenvalue GAMMA=   2.3019
  6.7795  3.7730  2.6323  2.0274  1.8624  1.8624  1.2126  0.9714  0.9714  0.9268

 Free energy of the ion-electron system (eV)
  ---------------------------------------------------
  alpha Z        PSCENC =         1.96423985
  Ewald energy   TEWEN  =      2629.98113996
  -Hartree energ DENC   =     -3564.54392233
  -exchange      EXHF   =         0.00000000
  -V(xc)+E(xc)   XCENC  =       -42.87476714
  PAW double counting   =      3922.14537041    -3760.45102897
  entropy T*S    EENTRO =        -0.00000000
  eigenvalues    EBANDS =      -526.33097060
  atomic energy  EATOM  =      1238.03527989
  Solvation  Ediel_sol  =         0.00000000
  ---------------------------------------------------
  free energy    TOTEN  =      -102.07465892 eV

  energy without entropy =     -102.07465892  energy(sigma->0) =     -102.07465892


--------------------------------------------------------------------------------------------------------




--------------------------------------- Iteration      1(  16)  ---------------------------------------


    POTLOK:  cpu time    1.7287: real time    1.7292
    SETDIJ:  cpu time    0.0080: real time    0.0077
     EDDAV:  cpu time   10.7424: real time   10.7390
       DOS:  cpu time    0.0000: real time    0.0003
    CHARGE:  cpu time    0.4859: real time    0.4862
    MIXING:  cpu time    0.0880: real time    0.0874
    --------------------------------------------
      LOOP:  cpu time   13.0530: real time   13.0497

 eigenvalue-minimisations  :   112
 total energy-change (2. order) :-0.9937132E-03  (-0.5116790E-05)
 number of electron      56.0000021 magnetization 
 augmentation part       -3.5215128 magnetization 

 Broyden mixing:
  rms(total) = 0.74124E-03    rms(broyden)= 0.74122E-03
  rms(prec ) = 0.10540E-02
  weight for this iteration     100.00

 eigenvalues of (default mixing * dielectric matrix)
  average eigenvalue GAMMA=   2.4184
  7.3828  4.6305  2.6400  2.6400  1.8261  1.8261  1.3755  1.3755  0.9635  0.9635
  0.9790

 Free energy of the ion-electron system (eV)
  ---------------------------------------------------
  alpha Z        PSCENC =         1.96423985
  Ewald energy   TEWEN  =      2629.98113996
  -Hartree energ DENC   =     -3564.65048800
  -exchange      EXHF   =         0.00000000
  -V(xc)+E(xc)   XCENC  =       -42.87282621
  PAW double counting   =      3922.19932560    -3760.50425799
  entropy T*S    EENTRO =        -0.00000000
  eigenvalues    EBANDS =      -526.22806573
  atomic energy  EATOM  =      1238.03527989
  Solvation  Ediel_sol  =         0.00000000
  ---------------------------------------------------
  free energy    TOTEN  =      -102.07565263 eV

  energy without entropy =     -102.07565263  energy(sigma->0) =     -102.07565263


--------------------------------------------------------------------------------------------------------




--------------------------------------- Iteration      1(  17)  ---------------------------------------


    POTLOK:  cpu time    1.7287: real time    1.7281
    SETDIJ:  cpu time    0.0080: real time    0.0076
     EDDAV:  cpu time   10.1695: real time   10.3362
       DOS:  cpu time    0.0000: real time    0.0003
    CHARGE:  cpu time    0.4839: real time    0.4841
    MIXING:  cpu time    0.0970: real time    0.0969
    --------------------------------------------
      LOOP:  cpu time   12.4871: real time   12.6533

 eigenvalue-minimisations  :   104
 total energy-change (2. order) :-0.1073192E-02  (-0.9433784E-05)
 number of electron      56.0000021 magnetization 
 augmentation part       -3.5217277 magnetization 

 Broyden mixing:
  rms(total) = 0.31864E-03    rms(broyden)= 0.31860E-03
  rms(prec ) = 0.45667E-03
  weight for this iteration     100.00

 eigenvalues of (default mixing * dielectric matrix)
  average eigenvalue GAMMA=   2.3925
  7.5916  5.0157  2.6698  2.6698  1.9376  1.9376  1.4747  1.4747  1.0362  0.9790
  0.9790  0.9439

 Free energy of the ion-electron system (eV)
  ---------------------------------------------------
  alpha Z        PSCENC =         1.96423985
  Ewald energy   TEWEN  =      2629.98113996
  -Hartree energ DENC   =     -3564.67256258
  -exchange      EXHF   =         0.00000000
  -V(xc)+E(xc)   XCENC  =       -42.87452294
  PAW double counting   =      3920.42529684    -3758.72890028
  entropy T*S    EENTRO =        -0.00000000
  eigenvalues    EBANDS =      -526.20669658
  atomic energy  EATOM  =      1238.03527989
  Solvation  Ediel_sol  =         0.00000000
  ---------------------------------------------------
  free energy    TOTEN  =      -102.07672582 eV

  energy without entropy =     -102.07672582  energy(sigma->0) =     -102.07672582


--------------------------------------------------------------------------------------------------------




--------------------------------------- Iteration      1(  18)  ---------------------------------------


    POTLOK:  cpu time    1.7297: real time    1.7288
    SETDIJ:  cpu time    0.0070: real time    0.0076
     EDDAV:  cpu time   10.7644: real time   10.7611
       DOS:  cpu time    0.0000: real time    0.0003
    CHARGE:  cpu time    0.4859: real time    0.4859
    MIXING:  cpu time    0.1070: real time    0.1074
    --------------------------------------------
      LOOP:  cpu time   13.0940: real time   13.0912

 eigenvalue-minimisations  :   112
 total energy-change (2. order) :-0.2361464E-03  (-0.7305302E-06)
 number of electron      56.0000021 magnetization 
 augmentation part       -3.5217248 magnetization 

 Broyden mixing:
  rms(total) = 0.19367E-03    rms(broyden)= 0.19364E-03
  rms(prec ) = 0.28220E-03
  weight for this iteration     100.00

 eigenvalues of (default mixing * dielectric matrix)
  average eigenvalue GAMMA=   2.4895
  8.1940  5.7143  3.1961  2.6331  2.3237  1.8014  1.8014  1.3930  1.3930  0.9936
  0.9936  0.9630  0.9630

 Free energy of the ion-electron system (eV)
  ---------------------------------------------------
  alpha Z        PSCENC =         1.96423985
  Ewald energy   TEWEN  =      2629.98113996
  -Hartree energ DENC   =     -3564.69583679
  -exchange      EXHF   =         0.00000000
  -V(xc)+E(xc)   XCENC  =       -42.87465351
  PAW double counting   =      3920.33868681    -3758.64276835
  entropy T*S    EENTRO =        -0.00000000
  eigenvalues    EBANDS =      -526.18304984
  atomic energy  EATOM  =      1238.03527989
  Solvation  Ediel_sol  =         0.00000000
  ---------------------------------------------------
  free energy    TOTEN  =      -102.07696197 eV

  energy without entropy =     -102.07696197  energy(sigma->0) =     -102.07696197


--------------------------------------------------------------------------------------------------------




--------------------------------------- Iteration      1(  19)  ---------------------------------------


    POTLOK:  cpu time    1.7357: real time    1.7592
    SETDIJ:  cpu time    0.0080: real time    0.0076
     EDDAV:  cpu time    9.5336: real time    9.5308
       DOS:  cpu time    0.0000: real time    0.0003
    CHARGE:  cpu time    0.4849: real time    0.4836
    MIXING:  cpu time    0.1200: real time    0.1204
    --------------------------------------------
      LOOP:  cpu time   11.8822: real time   11.9019

 eigenvalue-minimisations  :    96
 total energy-change (2. order) :-0.1885443E-03  (-0.7339956E-06)
 number of electron      56.0000021 magnetization 
 augmentation part       -3.5217492 magnetization 

 Broyden mixing:
  rms(total) = 0.18062E-03    rms(broyden)= 0.18061E-03
  rms(prec ) = 0.22023E-03
  weight for this iteration     100.00

 eigenvalues of (default mixing * dielectric matrix)
  average eigenvalue GAMMA=   2.4688
  8.3023  6.1072  3.3234  2.6748  1.9634  1.9634  1.9186  1.6020  1.6020  1.2763
  0.9885  0.9885  0.9264  0.9264

 Free energy of the ion-electron system (eV)
  ---------------------------------------------------
  alpha Z        PSCENC =         1.96423985
  Ewald energy   TEWEN  =      2629.98113996
  -Hartree energ DENC   =     -3564.71524612
  -exchange      EXHF   =         0.00000000
  -V(xc)+E(xc)   XCENC  =       -42.87343780
  PAW double counting   =      3920.10506624    -3758.40943136
  entropy T*S    EENTRO =        -0.00000000
  eigenvalues    EBANDS =      -526.16476118
  atomic energy  EATOM  =      1238.03527989
  Solvation  Ediel_sol  =         0.00000000
  ---------------------------------------------------
  free energy    TOTEN  =      -102.07715051 eV

  energy without entropy =     -102.07715051  energy(sigma->0) =     -102.07715051


--------------------------------------------------------------------------------------------------------




--------------------------------------- Iteration      1(  20)  ---------------------------------------


    POTLOK:  cpu time    1.7367: real time    1.7357
    SETDIJ:  cpu time    0.0080: real time    0.0079
     EDDAV:  cpu time    8.9496: real time    8.9540
       DOS:  cpu time    0.0000: real time    0.0003
    CHARGE:  cpu time    0.4849: real time    0.4844
    MIXING:  cpu time    0.1320: real time    0.1320
    --------------------------------------------
      LOOP:  cpu time   11.3113: real time   11.3142

 eigenvalue-minimisations  :    88
 total energy-change (2. order) :-0.4500266E-04  (-0.8119781E-07)
 number of electron      56.0000021 magnetization 
 augmentation part       -3.5217297 magnetization 

 Broyden mixing:
  rms(total) = 0.52098E-04    rms(broyden)= 0.52098E-04
  rms(prec ) = 0.80349E-04
  weight for this iteration     100.00

 eigenvalues of (default mixing * dielectric matrix)
  average eigenvalue GAMMA=   2.5092
  8.6102  6.3533  3.9638  2.8503  2.5452  1.8379  1.8379  1.8425  1.3974  1.3974
  1.1731  0.9816  0.9816  0.9776  0.8878

 Free energy of the ion-electron system (eV)
  ---------------------------------------------------
  alpha Z        PSCENC =         1.96423985
  Ewald energy   TEWEN  =      2629.98113996
  -Hartree energ DENC   =     -3564.72041989
  -exchange      EXHF   =         0.00000000
  -V(xc)+E(xc)   XCENC  =       -42.87424753
  PAW double counting   =      3920.02242565    -3758.32681888
  entropy T*S    EENTRO =        -0.00000000
  eigenvalues    EBANDS =      -526.15879456
  atomic energy  EATOM  =      1238.03527989
  Solvation  Ediel_sol  =         0.00000000
  ---------------------------------------------------
  free energy    TOTEN  =      -102.07719552 eV

  energy without entropy =     -102.07719552  energy(sigma->0) =     -102.07719552


--------------------------------------------------------------------------------------------------------




--------------------------------------- Iteration      1(  21)  ---------------------------------------


    POTLOK:  cpu time    1.7307: real time    1.7310
    SETDIJ:  cpu time    0.0080: real time    0.0075
     EDDAV:  cpu time    8.3357: real time    8.3334
       DOS:  cpu time    0.0010: real time    0.0003
    CHARGE:  cpu time    0.4849: real time    0.4854
    MIXING:  cpu time    0.1420: real time    0.1423
    --------------------------------------------
      LOOP:  cpu time   10.7024: real time   10.7000

 eigenvalue-minimisations  :    80
 total energy-change (2. order) :-0.2885797E-04  (-0.9417402E-07)
 number of electron      56.0000021 magnetization 
 augmentation part       -3.5217095 magnetization 

 Broyden mixing:
  rms(total) = 0.61081E-04    rms(broyden)= 0.61077E-04
  rms(prec ) = 0.75963E-04
  weight for this iteration     100.00

 eigenvalues of (default mixing * dielectric matrix)
  average eigenvalue GAMMA=   2.4902
  8.5458  6.6129  4.0957  2.8980  2.6292  2.0189  2.0189  1.6897  1.6897  1.5602
  1.2125  1.0082  1.0082  0.9790  0.9381  0.9381

 Free energy of the ion-electron system (eV)
  ---------------------------------------------------
  alpha Z        PSCENC =         1.96423985
  Ewald energy   TEWEN  =      2629.98113996
  -Hartree energ DENC   =     -3564.72673221
  -exchange      EXHF   =         0.00000000
  -V(xc)+E(xc)   XCENC  =       -42.87438129
  PAW double counting   =      3920.14188740    -3758.44636359
  entropy T*S    EENTRO =        -0.00000000
  eigenvalues    EBANDS =      -526.15229438
  atomic energy  EATOM  =      1238.03527989
  Solvation  Ediel_sol  =         0.00000000
  ---------------------------------------------------
  free energy    TOTEN  =      -102.07722437 eV

  energy without entropy =     -102.07722437  energy(sigma->0) =     -102.07722437


--------------------------------------------------------------------------------------------------------




--------------------------------------- Iteration      1(  22)  ---------------------------------------


    POTLOK:  cpu time    1.7257: real time    1.7243
    SETDIJ:  cpu time    0.0070: real time    0.0076
     EDDAV:  cpu time    8.9276: real time    8.9241
       DOS:  cpu time    0.0010: real time    0.0003
    CHARGE:  cpu time    0.4859: real time    0.4859
    MIXING:  cpu time    0.1550: real time    0.1550
    --------------------------------------------
      LOOP:  cpu time   11.3023: real time   11.2972

 eigenvalue-minimisations  :    88
 total energy-change (2. order) :-0.7436141E-05  (-0.1707019E-07)
 number of electron      56.0000021 magnetization 
 augmentation part       -3.5217187 magnetization 

 Broyden mixing:
  rms(total) = 0.22167E-04    rms(broyden)= 0.22166E-04
  rms(prec ) = 0.29940E-04
  weight for this iteration     100.00

 eigenvalues of (default mixing * dielectric matrix)
  average eigenvalue GAMMA=   2.5193
  8.8144  6.7463  4.6630  3.1911  2.5512  2.5512  1.8814  1.8814  1.6432  1.6432
  1.1962  1.1962  1.0374  0.9725  0.9725  0.9432  0.9432

 Free energy of the ion-electron system (eV)
  ---------------------------------------------------
  alpha Z        PSCENC =         1.96423985
  Ewald energy   TEWEN  =      2629.98113996
  -Hartree energ DENC   =     -3564.72622047
  -exchange      EXHF   =         0.00000000
  -V(xc)+E(xc)   XCENC  =       -42.87418677
  PAW double counting   =      3920.20808124    -3758.51246541
  entropy T*S    EENTRO =        -0.00000000
  eigenvalues    EBANDS =      -526.15310009
  atomic energy  EATOM  =      1238.03527989
  Solvation  Ediel_sol  =         0.00000000
  ---------------------------------------------------
  free energy    TOTEN  =      -102.07723181 eV

  energy without entropy =     -102.07723181  energy(sigma->0) =     -102.07723181


--------------------------------------------------------------------------------------------------------




--------------------------------------- Iteration      1(  23)  ---------------------------------------


    POTLOK:  cpu time    1.7217: real time    1.7241
    SETDIJ:  cpu time    0.0070: real time    0.0078
     EDDAV:  cpu time    8.3837: real time    8.3806
       DOS:  cpu time    0.0010: real time    0.0005
    CHARGE:  cpu time    0.4859: real time    0.4853
    MIXING:  cpu time    0.1660: real time    0.1662
    --------------------------------------------
      LOOP:  cpu time   10.7654: real time   10.7644

 eigenvalue-minimisations  :    80
 total energy-change (2. order) :-0.4105953E-05  (-0.1085653E-07)
 number of electron      56.0000021 magnetization 
 augmentation part       -3.5217274 magnetization 

 Broyden mixing:
  rms(total) = 0.16166E-04    rms(broyden)= 0.16165E-04
  rms(prec ) = 0.20448E-04
  weight for this iteration     100.00

 eigenvalues of (default mixing * dielectric matrix)
  average eigenvalue GAMMA=   2.4878
  8.8704  6.7895  4.7844  3.1159  2.6412  2.6412  1.9871  1.9871  1.6787  1.6787
  1.3121  1.3121  0.9425  0.9425  1.0080  1.0080  1.0401  1.0401

 Free energy of the ion-electron system (eV)
  ---------------------------------------------------
  alpha Z        PSCENC =         1.96423985
  Ewald energy   TEWEN  =      2629.98113996
  -Hartree energ DENC   =     -3564.72503827
  -exchange      EXHF   =         0.00000000
  -V(xc)+E(xc)   XCENC  =       -42.87429895
  PAW double counting   =      3920.16186573    -3758.46619947
  entropy T*S    EENTRO =        -0.00000000
  eigenvalues    EBANDS =      -526.15422466
  atomic energy  EATOM  =      1238.03527989
  Solvation  Ediel_sol  =         0.00000000
  ---------------------------------------------------
  free energy    TOTEN  =      -102.07723592 eV

  energy without entropy =     -102.07723592  energy(sigma->0) =     -102.07723592


--------------------------------------------------------------------------------------------------------




--------------------------------------- Iteration      1(  24)  ---------------------------------------


    POTLOK:  cpu time    1.7227: real time    1.7366
    SETDIJ:  cpu time    0.0120: real time    0.0124
     EDDAV:  cpu time    8.3637: real time    8.3608
       DOS:  cpu time    0.0000: real time    0.0004
    CHARGE:  cpu time    0.4849: real time    0.4836
    MIXING:  cpu time    0.1780: real time    0.1777
    --------------------------------------------
      LOOP:  cpu time   10.7614: real time   10.7715

 eigenvalue-minimisations  :    80
 total energy-change (2. order) :-0.2212370E-05  (-0.2982432E-08)
 number of electron      56.0000021 magnetization 
 augmentation part       -3.5217264 magnetization 

 Broyden mixing:
  rms(total) = 0.95951E-05    rms(broyden)= 0.95949E-05
  rms(prec ) = 0.11679E-04
  weight for this iteration     100.00

 eigenvalues of (default mixing * dielectric matrix)
  average eigenvalue GAMMA=   2.5512
  8.8433  7.1310  5.4042  3.8745  2.9193  2.5030  2.3999  1.8754  1.8754  1.6465
  1.6465  1.2071  1.2071  1.1284  0.9866  0.9866  0.9423  0.9423  0.9540

 Free energy of the ion-electron system (eV)
  ---------------------------------------------------
  alpha Z        PSCENC =         1.96423985
  Ewald energy   TEWEN  =      2629.98113996
  -Hartree energ DENC   =     -3564.72582342
  -exchange      EXHF   =         0.00000000
  -V(xc)+E(xc)   XCENC  =       -42.87432394
  PAW double counting   =      3920.10905703    -3758.41341701
  entropy T*S    EENTRO =        -0.00000000
  eigenvalues    EBANDS =      -526.15339050
  atomic energy  EATOM  =      1238.03527989
  Solvation  Ediel_sol  =         0.00000000
  ---------------------------------------------------
  free energy    TOTEN  =      -102.07723813 eV

  energy without entropy =     -102.07723813  energy(sigma->0) =     -102.07723813


--------------------------------------------------------------------------------------------------------




--------------------------------------- Iteration      1(  25)  ---------------------------------------


    POTLOK:  cpu time    1.7477: real time    1.7829
    SETDIJ:  cpu time    0.0080: real time    0.0076
     EDDAV:  cpu time    8.2647: real time    8.2791
       DOS:  cpu time    0.0010: real time    0.0004
    --------------------------------------------
      LOOP:  cpu time   10.0215: real time   10.0700

 eigenvalue-minimisations  :    80
 total energy-change (2. order) :-0.9159639E-06  (-0.1613296E-08)
 number of electron      56.0000021 magnetization 
 augmentation part       -3.5217264 magnetization 

 Free energy of the ion-electron system (eV)
  ---------------------------------------------------
  alpha Z        PSCENC =         1.96423985
  Ewald energy   TEWEN  =      2629.98113996
  -Hartree energ DENC   =     -3564.72654309
  -exchange      EXHF   =         0.00000000
  -V(xc)+E(xc)   XCENC  =       -42.87427558
  PAW double counting   =      3920.11724723    -3758.42161906
  entropy T*S    EENTRO =        -0.00000000
  eigenvalues    EBANDS =      -526.15270824
  atomic energy  EATOM  =      1238.03527989
  Solvation  Ediel_sol  =         0.00000000
  ---------------------------------------------------
  free energy    TOTEN  =      -102.07723905 eV

  energy without entropy =     -102.07723904  energy(sigma->0) =     -102.07723904


--------------------------------------------------------------------------------------------------------




 average (electrostatic) potential at core
  the test charge radii are     0.9892  1.1631  0.5201
  (the norm of the test charge is              1.0000)
       1 -93.3982       2 -93.4173       3 -93.4234       4 -93.4374       5 -93.3985
       6 -93.4563       7 -40.4409       8 -40.4281       9 -40.3998      10 -40.4348
      11 -41.0704      12 -41.0745      13 -40.6996      14 -40.6919      15 -40.6967
      16 -40.7040      17 -40.7054      18 -40.7004      19 -41.0577      20 -41.0607
      21 -41.0600      22 -40.6891      23 -40.6999      24 -40.7045      25 -41.0650
      26 -41.0608
 
 
 
 E-fermi :  -5.4218     XC(G=0):  -0.6081     alpha+bet : -0.3388


 k-point     1 :       0.0000    0.0000    0.0000
  band No.  band energies     occupation 
      1     -15.2208      2.00000
      2     -14.3586      2.00000
      3     -14.0588      2.00000
      4     -13.7382      2.00000
      5     -13.1608      2.00000
      6     -12.7090      2.00000
      7     -11.7198      2.00000
      8     -11.3995      2.00000
      9     -11.2674      2.00000
     10     -10.3897      2.00000
     11      -8.9556      2.00000
     12      -8.6304      2.00000
     13      -8.6236      2.00000
     14      -8.6168      2.00000
     15      -8.1882      2.00000
     16      -8.1808      2.00000
     17      -8.1713      2.00000
     18      -7.8660      2.00000
     19      -7.8564      2.00000
     20      -7.8488      2.00000
     21      -6.7920      2.00000
     22      -6.7688      2.00000
     23      -6.4893      2.00000
     24      -6.4683      2.00000
     25      -6.4617      2.00000
     26      -6.3852      2.00000
     27      -6.3804      2.00000
     28      -6.3702      2.00000
     29      -1.7598      0.00000
     30      -1.4451      0.00000
     31      -1.2952      0.00000
     32      -1.2067      0.00000
     33      -1.1721      0.00000
     34      -1.1663      0.00000
     35      -1.0791      0.00000
     36      -1.0033      0.00000
     37      -0.8650      0.00000
     38      -0.5687      0.00000
     39      -0.4935      0.00000
     40      -0.3631      0.00000
     41      -0.2711      0.00000
     42      -0.1903      0.00000


--------------------------------------------------------------------------------------------------------


 soft charge-density along one line, spin component           1
         0         1         2         3         4         5         6         7         8         9
 total charge-density along one line
 
 pseudopotential strength for first ion, spin component:           1
 19.613  27.371   0.001   0.003   0.001   0.002   0.005   0.002
 27.371  38.202   0.002   0.004   0.002   0.003   0.007   0.003
  0.001   0.002   4.359   0.000   0.000   8.131   0.000   0.000
  0.003   0.004   0.000   4.359   0.000   0.000   8.131   0.000
  0.001   0.002   0.000   0.000   4.359   0.000   0.000   8.131
  0.002   0.003   8.131   0.000   0.000  15.178   0.001   0.001
  0.005   0.007   0.000   8.131   0.000   0.001  15.177   0.001
  0.002   0.003   0.000   0.000   8.131   0.001   0.001  15.177
 total augmentation occupancy for first ion, spin component:           1
  5.556  -2.037   0.052  -0.340  -0.055  -0.015   0.102   0.017
 -2.037   0.810  -0.035   0.206   0.032   0.009  -0.045  -0.007
  0.052  -0.035   2.836  -0.110  -0.029  -0.615   0.038   0.008
 -0.340   0.206  -0.110   3.284   0.051   0.038  -0.775  -0.019
 -0.055   0.032  -0.029   0.051   2.841   0.008  -0.019  -0.614
 -0.015   0.009  -0.615   0.038   0.008   0.140  -0.011  -0.002
  0.102  -0.045   0.038  -0.775  -0.019  -0.011   0.186   0.006
  0.017  -0.007   0.008  -0.019  -0.614  -0.002   0.006   0.139


------------------------ aborting loop because EDIFF is reached ----------------------------------------


    CHARGE:  cpu time    0.4849: real time    0.4850
    FORLOC:  cpu time    0.1730: real time    0.1714
    FORNL :  cpu time    1.0738: real time    1.0738
    STRESS:  cpu time    8.0448: real time    8.0419
    FORCOR:  cpu time    1.7237: real time    1.7231
    FORHAR:  cpu time    0.5819: real time    0.5822
    MIXING:  cpu time    0.1950: real time    0.1938
    OFIELD:  cpu time    0.0000: real time    0.0000

  FORCE on cell =-STRESS in cart. coord.  units (eV):
  Direction    XX          YY          ZZ          XY          YZ          ZX
  --------------------------------------------------------------------------------------
  Alpha Z     1.96424     1.96424     1.96424
  Ewald     876.64706   876.62235   876.71007    -0.21850     0.02563    -0.50464
  Hartree  1188.93012  1187.38646  1188.41010    -0.67768     0.09768    -0.17665
  E(xc)    -177.12784  -177.20253  -177.18532     0.01653    -0.00924    -0.04371
  Local   -2568.94548 -2567.44351 -2568.54132     0.87112    -0.13888     0.66082
  n-local   272.78964   273.30091   273.15219    -0.01990     0.05102     0.20707
  augment   -27.51165   -27.51979   -27.50293    -0.00097    -0.00528    -0.00352
  Kinetic   429.36110   429.02777   429.16989     0.01667    -0.00189    -0.07896
  Fock        0.00000     0.00000     0.00000     0.00000     0.00000     0.00000
  -------------------------------------------------------------------------------------
  Total      -3.89281    -3.86411    -3.82308    -0.01272     0.01905     0.06041
  in kB      -0.77962    -0.77387    -0.76566    -0.00255     0.00381     0.01210
  external pressure =       -0.77 kB  Pullay stress =        0.00 kB


 VOLUME and BASIS-vectors are now :
 -----------------------------------------------------------------------------
  energy-cutoff  :      400.00
[...]
    SETDIJ:  cpu time    0.0080: real time    0.0080
     EDDAV:  cpu time   11.3783: real time   11.3921
       DOS:  cpu time    0.0000: real time    0.0003
    CHARGE:  cpu time    0.4909: real time    0.4912
    MIXING:  cpu time    0.0440: real time    0.0449
    --------------------------------------------
      LOOP:  cpu time   13.6519: real time   13.6703

 eigenvalue-minimisations  :   120
 total energy-change (2. order) :-0.2211457E-04  (-0.3063149E-04)
 number of electron      55.9999980 magnetization 
 augmentation part       -3.5158786 magnetization 

 Broyden mixing:
  rms(total) = 0.15105E-02    rms(broyden)= 0.15102E-02
  rms(prec ) = 0.16225E-02
  weight for this iteration     100.00

 eigenvalues of (default mixing * dielectric matrix)
  average eigenvalue GAMMA=   1.0623
  1.0623

 Free energy of the ion-electron system (eV)
  ---------------------------------------------------
  alpha Z        PSCENC =         1.96423985
  Ewald energy   TEWEN  =      2644.98586594
  -Hartree energ DENC   =     -3578.82266021
  -exchange      EXHF   =         0.00000000
  -V(xc)+E(xc)   XCENC  =       -42.19227666
  PAW double counting   =      4184.68926829    -4023.09226549
  entropy T*S    EENTRO =        -0.00000000
  eigenvalues    EBANDS =      -527.91079007
  atomic energy  EATOM  =      1238.03527989
  Solvation  Ediel_sol  =         0.00000000
  ---------------------------------------------------
  free energy    TOTEN  =      -102.34333846 eV

  energy without entropy =     -102.34333846  energy(sigma->0) =     -102.34333846


--------------------------------------------------------------------------------------------------------




--------------------------------------- Iteration     18(   3)  ---------------------------------------


    POTLOK:  cpu time    1.7337: real time    1.7357
    SETDIJ:  cpu time    0.0090: real time    0.0076
     EDDAV:  cpu time   11.4213: real time   11.4381
       DOS:  cpu time    0.0000: real time    0.0003
    CHARGE:  cpu time    0.4869: real time    0.4874
    MIXING:  cpu time    0.0480: real time    0.0478
    --------------------------------------------
      LOOP:  cpu time   13.6989: real time   13.7168

 eigenvalue-minimisations  :   120
 total energy-change (2. order) : 0.2634260E-05  (-0.1006800E-05)
 number of electron      55.9999980 magnetization 
 augmentation part       -3.5159225 magnetization 

 Broyden mixing:
  rms(total) = 0.84971E-03    rms(broyden)= 0.84969E-03
  rms(prec ) = 0.90921E-03
  weight for this iteration     100.00

 eigenvalues of (default mixing * dielectric matrix)
  average eigenvalue GAMMA=   1.5693
  1.0745  2.0641

 Free energy of the ion-electron system (eV)
  ---------------------------------------------------
  alpha Z        PSCENC =         1.96423985
  Ewald energy   TEWEN  =      2644.98586594
  -Hartree energ DENC   =     -3578.81354909
  -exchange      EXHF   =         0.00000000
  -V(xc)+E(xc)   XCENC  =       -42.19236881
  PAW double counting   =      4184.32151260    -4022.72410206
  entropy T*S    EENTRO =        -0.00000000
  eigenvalues    EBANDS =      -527.92021414
  atomic energy  EATOM  =      1238.03527989
  Solvation  Ediel_sol  =         0.00000000
  ---------------------------------------------------
  free energy    TOTEN  =      -102.34333582 eV

  energy without entropy =     -102.34333582  energy(sigma->0) =     -102.34333582


--------------------------------------------------------------------------------------------------------




--------------------------------------- Iteration     18(   4)  ---------------------------------------


    POTLOK:  cpu time    1.7357: real time    1.7370
    SETDIJ:  cpu time    0.0080: real time    0.0075
     EDDAV:  cpu time   10.2234: real time   10.2226
       DOS:  cpu time    0.0010: real time    0.0003
    --------------------------------------------
      LOOP:  cpu time   11.9682: real time   11.9674

 eigenvalue-minimisations  :   104
 total energy-change (2. order) : 0.9168089E-06  (-0.3140702E-06)
 number of electron      55.9999980 magnetization 
 augmentation part       -3.5159225 magnetization 

 Free energy of the ion-electron system (eV)
  ---------------------------------------------------
  alpha Z        PSCENC =         1.96423985
  Ewald energy   TEWEN  =      2644.98586594
  -Hartree energ DENC   =     -3578.80503074
  -exchange      EXHF   =         0.00000000
  -V(xc)+E(xc)   XCENC  =       -42.19250855
  PAW double counting   =      4183.78857311    -4022.19082348
  entropy T*S    EENTRO =        -0.00000000
  eigenvalues    EBANDS =      -527.92893093
  atomic energy  EATOM  =      1238.03527989
  Solvation  Ediel_sol  =         0.00000000
  ---------------------------------------------------
  free energy    TOTEN  =      -102.34333491 eV

  energy without entropy =     -102.34333491  energy(sigma->0) =     -102.34333491


--------------------------------------------------------------------------------------------------------




 average (electrostatic) potential at core
  the test charge radii are     0.9892  1.1631  0.5201
  (the norm of the test charge is              1.0000)
       1 -93.3245       2 -93.2719       3 -93.2678       4 -93.4047       5 -93.3245
       6 -93.3430       7 -40.4294       8 -40.4499       9 -40.3833      10 -40.4317
      11 -40.9819      12 -40.9806      13 -40.8854      14 -40.8446      15 -40.8436
      16 -40.8398      17 -40.8398      18 -40.8852      19 -41.0141      20 -40.9772
      21 -40.9779      22 -40.8984      23 -40.8386      24 -40.8364      25 -40.9803
      26 -40.9810
 
 
 
 E-fermi :  -5.3444     XC(G=0):  -0.6067     alpha+bet : -0.3388


 k-point     1 :       0.0000    0.0000    0.0000
  band No.  band energies     occupation 
      1     -15.1346      2.00000
      2     -14.2725      2.00000
      3     -14.0749      2.00000
      4     -13.8828      2.00000
      5     -13.1707      2.00000
      6     -12.8474      2.00000
      7     -11.7831      2.00000
      8     -11.5158      2.00000
      9     -11.3863      2.00000
     10     -10.5153      2.00000
     11      -9.0443      2.00000
     12      -8.6887      2.00000
     13      -8.6346      2.00000
     14      -8.5719      2.00000
     15      -8.2307      2.00000
     16      -8.1491      2.00000
     17      -8.0712      2.00000
     18      -7.9626      2.00000
     19      -7.9168      2.00000
     20      -7.8456      2.00000
     21      -6.8783      2.00000
     22      -6.7882      2.00000
     23      -6.5662      2.00000
     24      -6.5091      2.00000
     25      -6.4657      2.00000
     26      -6.4071      2.00000
     27      -6.3485      2.00000
     28      -6.3027      2.00000
     29      -1.6979      0.00000
     30      -1.4465      0.00000
     31      -1.3467      0.00000
     32      -1.3063      0.00000
     33      -1.2260      0.00000
     34      -1.1552      0.00000
     35      -1.0804      0.00000
     36      -0.9507      0.00000
     37      -0.7719      0.00000
     38      -0.4443      0.00000
     39      -0.4106      0.00000
     40      -0.2798      0.00000
     41      -0.2265      0.00000
     42      -0.1182      0.00000


--------------------------------------------------------------------------------------------------------


 soft charge-density along one line, spin component           1
         0         1         2         3         4         5         6         7         8         9
 total charge-density along one line
 
 pseudopotential strength for first ion, spin component:           1
 19.613  27.371   0.001   0.003   0.001   0.003   0.006   0.002
 27.371  38.201   0.002   0.004   0.002   0.004   0.008   0.003
  0.001   0.002   4.361   0.000   0.000   8.136   0.000   0.000
  0.003   0.004   0.000   4.362   0.000   0.000   8.136   0.000
  0.001   0.002   0.000   0.000   4.361   0.000   0.000   8.135
  0.003   0.004   8.136   0.000   0.000  15.186   0.000   0.001
  0.006   0.008   0.000   8.136   0.000   0.000  15.187   0.001
  0.002   0.003   0.000   0.000   8.135   0.001   0.001  15.185
 total augmentation occupancy for first ion, spin component:           1
  5.923  -2.236  -0.015  -0.473  -0.109   0.007   0.148   0.035
 -2.236   0.904  -0.004   0.270   0.057  -0.001  -0.067  -0.015
 -0.015  -0.004   2.922  -0.163  -0.085  -0.641   0.052   0.023
 -0.473   0.270  -0.163   3.525   0.047   0.052  -0.848  -0.020
 -0.109   0.057  -0.085   0.047   2.994   0.023  -0.020  -0.660
  0.007  -0.001  -0.641   0.052   0.023   0.147  -0.015  -0.006
  0.148  -0.067   0.052  -0.848  -0.020  -0.015   0.207   0.006
  0.035  -0.015   0.023  -0.020  -0.660  -0.006   0.006   0.152


------------------------ aborting loop because EDIFF is reached ----------------------------------------


    CHARGE:  cpu time    0.4919: real time    0.4927
    FORLOC:  cpu time    0.1720: real time    0.1720
    FORNL :  cpu time    1.0798: real time    1.0800
    STRESS:  cpu time    7.7998: real time    7.7982
    FORCOR:  cpu time    1.7227: real time    1.7228
    FORHAR:  cpu time    0.5809: real time    0.5816
    MIXING:  cpu time    0.0490: real time    0.0489
    OFIELD:  cpu time    0.0000: real time    0.0000

  FORCE on cell =-STRESS in cart. coord.  units (eV):
  Direction    XX          YY          ZZ          XY          YZ          ZX
  --------------------------------------------------------------------------------------
  Alpha Z     1.96424     1.96424     1.96424
  Ewald     887.68147   875.84192   881.46080    -2.79225     0.87971     1.49803
  Hartree  1199.17759  1187.03297  1192.59437    -2.55485     0.69817     0.78321
  E(xc)    -177.89073  -178.01183  -177.94549     0.01624    -0.00938    -0.03381
  Local   -2591.27901 -2566.86900 -2578.69146     5.42769    -1.48495    -2.33967
  n-local   273.86663   274.39480   274.49091     0.00132    -0.07783     0.11570
  augment   -27.68890   -27.63823   -27.71890     0.00056     0.01953     0.00652
  Kinetic   433.26315   432.30550   433.01274    -0.22352    -0.07521     0.00649
  Fock        0.00000     0.00000     0.00000     0.00000     0.00000     0.00000
  -------------------------------------------------------------------------------------
  Total      -0.90556    -0.97962    -0.83280    -0.12482    -0.04996     0.03648
  in kB      -0.18136    -0.19619    -0.16679    -0.02500    -0.01001     0.00731
  external pressure =       -0.18 kB  Pullay stress =        0.00 kB


 VOLUME and BASIS-vectors are now :
 -----------------------------------------------------------------------------
  energy-cutoff  :      400.00
  volume of cell :     8000.00
      direct lattice vectors                 reciprocal lattice vectors
    20.000000000  0.000000000  0.000000000     0.050000000  0.000000000  0.000000000
     0.000000000 20.000000000  0.000000000     0.000000000  0.050000000  0.000000000
     0.000000000  0.000000000 20.000000000     0.000000000  0.000000000  0.050000000

  length of vectors
    20.000000000 20.000000000 20.000000000     0.050000000  0.050000000  0.050000000


 FORCES acting on ions
    electron-ion (+dipol)            ewald-force                    non-local-force                 convergence-correction
 -----------------------------------------------------------------------------------------------
   0.115E+02 -.209E+02 0.884E+02   -.120E+02 0.205E+02 -.899E+02   0.505E+00 0.482E+00 0.150E+01   0.532E-03 -.122E-03 -.852E-03
   0.882E+02 -.583E+01 0.464E+02   -.897E+02 0.592E+01 -.472E+02   0.156E+01 -.843E-01 0.780E+00   -.182E-03 -.187E-04 -.304E-03
   -.374E+02 0.540E+02 0.761E+02   0.380E+02 -.549E+02 -.774E+02   -.606E+00 0.934E+00 0.129E+01   0.615E-03 -.520E-03 -.810E-03
   0.807E+02 0.127E+02 -.419E+02   -.825E+02 -.129E+02 0.418E+02   0.177E+01 0.149E+00 0.863E-01   -.118E-03 -.765E-03 -.222E-03
   -.499E+02 0.762E+02 -.104E+02   0.513E+02 -.770E+02 0.100E+02   -.139E+01 0.836E+00 0.325E+00   0.494E-03 -.644E-03 -.136E-03
   -.868E+02 0.288E+01 -.467E+02   0.887E+02 -.364E+01 0.476E+02   -.188E+01 0.769E+00 -.861E+00   0.557E-03 -.206E-02 0.139E-03
   -.298E+02 -.854E+02 0.448E+02   0.300E+02 0.861E+02 -.454E+02   -.134E+00 -.630E+00 0.633E+00   -.331E-03 -.560E-03 -.169E-02
   -.426E+02 -.728E+02 -.417E+02   0.432E+02 0.730E+02 0.421E+02   -.573E+00 -.239E+00 -.339E+00   0.193E-03 -.843E-03 -.835E-03
   0.295E+02 0.852E+02 -.473E+02   -.297E+02 -.858E+02 0.476E+02   0.226E+00 0.588E+00 -.335E+00   0.367E-03 -.134E-03 0.949E-04
   0.357E+02 -.552E+02 -.760E+02   -.362E+02 0.555E+02 0.766E+02   0.571E+00 -.306E+00 -.659E+00   -.763E-03 -.140E-02 -.542E-03
   0.200E+02 0.402E+02 0.555E+01   -.211E+02 -.422E+02 -.661E+01   0.114E+01 0.197E+01 0.106E+01   0.609E-04 0.700E-05 0.641E-05
   0.123E+01 0.219E+02 -.396E+02   -.930E+00 -.225E+02 0.420E+02   -.302E+00 0.551E+00 -.243E+01   0.846E-04 -.642E-04 -.103E-03
   -.270E+02 0.407E+02 -.439E+01   0.286E+02 -.432E+02 0.464E+01   -.158E+01 0.243E+01 -.250E+00   0.443E-04 0.527E-04 0.670E-05
   -.462E+02 -.394E+01 0.575E+01   0.489E+02 0.436E+01 -.697E+01   -.266E+01 -.420E+00 0.122E+01   0.294E-04 -.372E-03 0.181E-04
   -.206E+02 0.831E+01 -.413E+02   0.210E+02 -.895E+01 0.442E+02   -.417E+00 0.641E+00 -.286E+01   0.117E-03 -.373E-03 -.303E-04
   -.369E+02 0.500E+01 0.293E+02   0.395E+02 -.459E+01 -.307E+02   -.260E+01 -.411E+00 0.135E+01   -.729E-04 -.188E-03 -.997E-04
   0.862E+01 0.365E+02 0.289E+02   -.994E+01 -.388E+02 -.302E+02   0.132E+01 0.230E+01 0.130E+01   0.182E-03 -.420E-04 -.171E-03
   0.678E+01 -.939E+01 0.475E+02   -.719E+01 0.993E+01 -.503E+02   0.406E+00 -.540E+00 0.283E+01   0.173E-03 0.446E-04 -.234E-04
   -.217E+02 -.355E+02 -.206E+02   0.229E+02 0.374E+02 0.217E+02   -.115E+01 -.190E+01 -.109E+01   0.197E-03 0.136E-03 -.138E-04
   0.295E+01 -.316E+01 -.445E+02   -.268E+01 0.267E+01 0.469E+02   -.275E+00 0.491E+00 -.245E+01   0.618E-05 -.333E-03 -.162E-04
   0.240E+02 -.364E+02 -.108E+02   -.253E+02 0.385E+02 0.106E+02   0.136E+01 -.210E+01 0.191E+00   -.198E-03 -.147E-03 -.197E-03
   0.435E+02 0.743E+01 -.207E+02   -.461E+02 -.789E+01 0.219E+02   0.261E+01 0.458E+00 -.123E+01   0.128E-03 -.787E-04 -.572E-04
   0.324E+02 0.250E+02 0.237E+02   -.338E+02 -.272E+02 -.251E+02   0.142E+01 0.222E+01 0.131E+01   -.745E-04 -.746E-04 -.108E-03
   0.350E+02 -.293E+02 0.124E+02   -.366E+02 0.317E+02 -.127E+02   0.165E+01 -.243E+01 0.341E+00   -.879E-04 -.234E-04 -.125E-03
   0.125E+02 -.415E+02 0.113E+02   -.138E+02 0.436E+02 -.116E+02   0.137E+01 -.210E+01 0.250E+00   -.589E-05 -.189E-03 -.319E-03
   -.335E+02 -.200E+02 0.226E+02   0.357E+02 0.204E+02 -.237E+02   -.221E+01 -.408E+00 0.113E+01   -.164E-03 -.178E-03 -.196E-03
 -----------------------------------------------------------------------------------------------
   -.135E+00 -.325E+01 -.309E+01   0.000E+00 0.746E-13 0.355E-14   0.133E+00 0.326E+01 0.309E+01   0.178E-02 -.889E-02 -.659E-02
 
 
 POSITION                                       TOTAL-FORCE (eV/Angst)
 -----------------------------------------------------------------------------------
      9.49514     11.09172      7.70447        -0.011875      0.003244     -0.005317
      7.40302     10.77587      8.73727         0.003426      0.006852     -0.001724
     10.82681      9.16904      7.94822         0.001954      0.002559      0.003001
      7.66384     10.29918     11.02477        -0.006589      0.005745      0.003078
     11.16517      8.68950     10.22542         0.009436     -0.002837      0.005496
     12.27823     10.46571     11.29217        -0.001626      0.001962     -0.000503
     10.62285     12.95945      8.71374        -0.002637     -0.002157      0.006705
     10.97211     12.47316     11.09275        -0.003343     -0.008196      0.001094
      9.02468      8.33406     11.26361         0.003836      0.005850      0.002188
      8.77053     12.12764     12.12411         0.004414     -0.000778     -0.003190
      8.31807      7.11162     10.60439         0.005879      0.008841     -0.002613
      9.21296      7.99443     12.77193         0.001855      0.002626      0.001528
     11.98288      7.43690     10.35444         0.010940     -0.010793      0.001856
     13.62551     10.67865     10.66997        -0.007985     -0.001872      0.001065
     12.48698     10.14084     12.73985         0.001882     -0.002678      0.003943
     12.14519      9.38027      7.26668         0.002616      0.002884     -0.000025
     10.15564      8.00132      7.28964        -0.002344     -0.000207      0.001799
      9.28518     11.36996      6.24409        -0.004717      0.001443     -0.016243
     11.69874     13.67107     11.78313        -0.000546     -0.008560      0.000148
      8.94026     11.82158     13.64246        -0.004866     -0.000402     -0.005561
      7.92650     13.43186     12.00430         0.003623     -0.006220      0.000653
      6.32128     10.06422     11.65436        -0.004549      0.001857      0.000274
      6.68157      9.64299      8.06937         0.007971      0.003056      0.004994
      6.56870     12.00952      8.56524        -0.000166      0.002949     -0.000094
      9.77561     14.25706      8.55831         0.000649     -0.001360     -0.001953
     11.99197     13.21037      8.01364        -0.007239     -0.003810     -0.000601
 -----------------------------------------------------------------------------------
    total drift:                               -0.000564      0.001827     -0.000164


--------------------------------------------------------------------------------------------------------



  FREE ENERGIE OF THE ION-ELECTRON SYSTEM (eV)
  ---------------------------------------------------
  free  energy   TOTEN  =      -102.34333491 eV

  energy  without entropy=     -102.34333491  energy(sigma->0) =     -102.34333491
 
 d Force = 0.1844753E-03[ 0.677E-04, 0.301E-03]  d Energy = 0.1817376E-03 0.274E-05
 d Force = 0.3557518E+00[ 0.356E+00, 0.356E+00]  d Ewald  = 0.3557519E+00-0.223E-07


--------------------------------------------------------------------------------------------------------


    POTLOK:  cpu time    1.7497: real time    1.7484


--------------------------------------------------------------------------------------------------------


 Conjugate gradient step on ions:
 trial-energy change:   -0.000182  1 .order   -0.000184   -0.000301   -0.000068
  (g-gl).g = 0.294E-03      g.g   = 0.281E-03  gl.gl    = 0.981E-03
 g(Force)  = 0.281E-03   g(Stress)= 0.000E+00 ortho     = 0.182E-05
 gamma     =   0.29937
 trial     =   1.07172
 opt step  =   1.38247  (harmonic =   1.38247) maximal distance =0.00144804
 next E    =  -102.343347   (d E  =  -0.00019)


--------------------------------------------------------------------------------------------------------


  
 reached required accuracy - stopping structural energy minimisation
 writing wavefunctions
     LOOP+:  cpu time   64.6082: real time   65.1257
    4ORBIT:  cpu time    0.0000: real time    0.0000

 total amount of memory used by VASP MPI-rank0   131440. kBytes
=======================================================================

   base      :      30000. kBytes
   nonl-proj :      17624. kBytes
   fftplans  :      26957. kBytes
   grid      :      48673. kBytes
   one-center:         40. kBytes
   wavefun   :       8146. kBytes
 
  
  
 General timing and accounting informations for this job:
 ========================================================
  
                  Total CPU time used (sec):     2455.628
                            User time (sec):     2424.688
                          System time (sec):       30.939
                         Elapsed time (sec):     2461.262
  
                   Maximum memory used (kb):      186416.
                   Average memory used (kb):           0.
  
                          Minor page faults:      5937895
                          Major page faults:            7
                 Voluntary context switches:         2723
