 vasp.5.4.4.18Apr17-6-g9f103f2a35 (build Nov 06 2017 19:16:10) complex          
  
 executed on           IFC91_ompi date 2018.07.08  11:21:03
 running on   12 total cores
 distrk:  each k-point on   12 cores,    1 groups
 distr:  one band on NCORES_PER_BAND=   6 cores,    2 groups


--------------------------------------------------------------------------------------------------------


 INCAR:
 POTCAR:    PAW_PBE Si 05Jan2001                  
 POTCAR:    PAW_PBE Ge 05Jan2001                  
 POTCAR:    PAW_PBE H 15Jun2001                   
 POTCAR:    PAW_PBE Si 05Jan2001                  
   VRHFIN =Si: s2p2                                                             
   LEXCH  = PE                                                                  
   EATOM  =   103.0669 eV,    7.5752 Ry                                         
                                                                                
   TITEL  = PAW_PBE Si 05Jan2001                                                
   LULTRA =        F    use ultrasoft PP ?                                      
   IUNSCR =        1    unscreen: 0-lin 1-nonlin 2-no                           
   RPACOR =    1.500    partial core radius                                     
   POMASS =   28.085; ZVAL   =    4.000    mass and valenz                      
   RCORE  =    1.900    outmost cutoff radius                                   
   RWIGS  =    2.480; RWIGS  =    1.312    wigner-seitz radius (au A)           
   ENMAX  =  245.345; ENMIN  =  184.009 eV                                      
   ICORE  =        2    local potential                                         
   LCOR   =        T    correct aug charges                                     
   LPAW   =        T    paw PP                                                  
   EAUG   =  322.069                                                            
   DEXC   =    0.000                                                            
   RMAX   =    1.950    core radius for proj-oper                               
   RAUG   =    1.300    factor for augmentation sphere                          
   RDEP   =    1.993    radius for radial grids                                 
   RDEPT  =    1.837    core radius for aug-charge                              
                                                                                
   Atomic configuration                                                         
    6 entries                                                                   
     n  l   j            E        occ.                                          
     1  0  0.50     -1785.8828   2.0000                                         
     2  0  0.50      -139.4969   2.0000                                         
     2  1  1.50       -95.5546   6.0000                                         
     3  0  0.50       -10.8127   2.0000                                         
     3  1  0.50        -4.0811   2.0000                                         
     3  2  1.50        -4.0817   0.0000                                         
   Description                                                                  
     l       E           TYP  RCUT    TYP  RCUT                                 
     0    -10.8127223     23  1.900                                             
     0     -7.6451159     23  1.900                                             
     1     -4.0811372     23  1.900                                             
     1      2.4879257     23  1.900                                             
     2     -4.0817478      7  1.900                                             
  local pseudopotential read in
  partial core-charges read in
  partial kinetic energy density read in
  atomic valenz-charges read in
  non local Contribution for L=           0  read in
    real space projection operators read in
  non local Contribution for L=           0  read in
    real space projection operators read in
  non local Contribution for L=           1  read in
    real space projection operators read in
  non local Contribution for L=           1  read in
    real space projection operators read in
    PAW grid and wavefunctions read in
 
   number of l-projection  operators is LMAX  =           4
   number of lm-projection operators is LMMAX =           8
 
 POTCAR:    PAW_PBE Ge 05Jan2001                  
   VRHFIN =Ge: s2p2                                                             
   LEXCH  = PE                                                                  
   EATOM  =   104.9960 eV,    7.7170 Ry                                         
                                                                                
   TITEL  = PAW_PBE Ge 05Jan2001                                                
   LULTRA =        F    use ultrasoft PP ?                                      
   IUNSCR =        1    unscreen: 0-lin 1-nonlin 2-no                           
   RPACOR =    2.170    partial core radius                                     
   POMASS =   72.610; ZVAL   =    4.000    mass and valenz                      
   RCORE  =    2.300    outmost cutoff radius                                   
   RWIGS  =    2.300; RWIGS  =    1.217    wigner-seitz radius (au A)           
   ENMAX  =  173.807; ENMIN  =  130.355 eV                                      
   ICORE  =        3    local potential                                         
   LCOR   =        T    correct aug charges                                     
   LPAW   =        T    paw PP                                                  
   EAUG   =  385.843                                                            
   DEXC   =    0.000                                                            
   RMAX   =    2.342    core radius for proj-oper                               
   RAUG   =    1.300    factor for augmentation sphere                          
   RDEP   =    2.318    radius for radial grids                                 
   RDEPT  =    2.103    core radius for aug-charge                              
                                                                                
   Atomic configuration                                                         
   10 entries                                                                   
     n  l   j            E        occ.                                          
     1  0  0.50    -10959.8463   2.0000                                         
     2  0  0.50     -1371.6056   2.0000                                         
     2  1  1.50     -1198.4791   6.0000                                         
     3  0  0.50      -168.4733   2.0000                                         
     3  1  1.50      -115.6019   6.0000                                         
     3  2  2.50       -29.3106  10.0000                                         
     4  0  0.50       -11.7309   2.0000                                         
     4  1  0.50        -3.8952   2.0000                                         
     4  2  1.50        -4.0817   0.0000                                         
     4  3  2.50        -4.0817   0.0000                                         
   Description                                                                  
     l       E           TYP  RCUT    TYP  RCUT                                 
     0    -11.7309493     23  2.300                                             
     0     -7.4578696     23  2.300                                             
     1     -3.8952261     23  2.300                                             
     1      6.1178114     23  2.300                                             
     2     -4.0817478     23  2.300                                             
     3     -1.3605826      7  2.300                                             
  local pseudopotential read in
  partial core-charges read in
  partial kinetic energy density read in
  atomic valenz-charges read in
  non local Contribution for L=           0  read in
    real space projection operators read in
  non local Contribution for L=           0  read in
    real space projection operators read in
  non local Contribution for L=           1  read in
    real space projection operators read in
  non local Contribution for L=           1  read in
    real space projection operators read in
  non local Contribution for L=           2  read in
    real space projection operators read in
    PAW grid and wavefunctions read in
 
   number of l-projection  operators is LMAX  =           5
   number of lm-projection operators is LMMAX =          13
 
 POTCAR:    PAW_PBE H 15Jun2001                   
   VRHFIN =H: ultrasoft test                                                    
   LEXCH  = PE                                                                  
   EATOM  =    12.4884 eV,    0.9179 Ry                                         
                                                                                
   TITEL  = PAW_PBE H 15Jun2001                                                 
   LULTRA =        F    use ultrasoft PP ?                                      
   IUNSCR =        0    unscreen: 0-lin 1-nonlin 2-no                           
   RPACOR =    0.000    partial core radius                                     
   POMASS =    1.000; ZVAL   =    1.000    mass and valenz                      
   RCORE  =    1.100    outmost cutoff radius                                   
   RWIGS  =    0.700; RWIGS  =    0.370    wigner-seitz radius (au A)           
   ENMAX  =  250.000; ENMIN  =  200.000 eV                                      
   RCLOC  =    0.701    cutoff for local pot                                    
   LCOR   =        T    correct aug charges                                     
   LPAW   =        T    paw PP                                                  
   EAUG   =  400.000                                                            
   RMAX   =    1.123    core radius for proj-oper                               
   RAUG   =    1.200    factor for augmentation sphere                          
   RDEP   =    1.112    radius for radial grids                                 
   RDEPT  =    0.926    core radius for aug-charge                              
                                                                                
   Atomic configuration                                                         
    2 entries                                                                   
     n  l   j            E        occ.                                          
     1  0  0.50        -6.4927   1.0000                                         
     2  1  0.50        -3.4015   0.0000                                         
   Description                                                                  
     l       E           TYP  RCUT    TYP  RCUT                                 
     0     -6.4927494     23  1.100                                             
     0      6.8029130     23  1.100                                             
     1     -4.0817478     23  1.100                                             
  local pseudopotential read in
  atomic valenz-charges read in
  non local Contribution for L=           0  read in
    real space projection operators read in
  non local Contribution for L=           0  read in
    real space projection operators read in
  non local Contribution for L=           1  read in
    real space projection operators read in
    PAW grid and wavefunctions read in
 
   number of l-projection  operators is LMAX  =           3
   number of lm-projection operators is LMMAX =           5
 

 ----------------------------------------------------------------------------- 
|                                                                             |
|  ADVICE TO THIS USER RUNNING 'VASP/VAMP'   (HEAR YOUR MASTER'S VOICE ...):  |
|                                                                             |
|      You have a (more or less) 'large supercell' and for larger cells       |
|      it might be more efficient to use real space projection opertators     |
|      So try LREAL= Auto  in the INCAR   file.                               |
|      Mind:          For very  accurate calculation you might also keep the  |
|      reciprocal projection scheme          (i.e. LREAL=.FALSE.)             |
|                                                                             |
 ----------------------------------------------------------------------------- 

  PAW_PBE Si 05Jan2001                  :
 energy of atom  1       EATOM= -103.0669
 kinetic energy error for atom=    0.0012 (will be added to EATOM!!)
  PAW_PBE Ge 05Jan2001                  :
 energy of atom  2       EATOM= -104.9960
 kinetic energy error for atom=    0.0003 (will be added to EATOM!!)
  PAW_PBE H 15Jun2001                   :
 energy of atom  3       EATOM=  -12.4884
 kinetic energy error for atom=    0.0098 (will be added to EATOM!!)
 
 
 POSCAR: SiGeH16                                 
  positions in direct lattice
  No initial velocities read in
 exchange correlation table for  LEXCH =        8
   RHO(1)=    0.500       N(1)  =     2000
   RHO(2)=  100.500       N(2)  =     4000
 


--------------------------------------------------------------------------------------------------------


 ion  position               nearest neighbor table
   1  0.475  0.556  0.385-  18 1.55   4 2.39   2 2.39   3 2.39
   2  0.369  0.539  0.436-  23 1.55  24 1.55   5 2.39   1 2.39
   3  0.542  0.457  0.396-  17 1.55  16 1.55   7 2.39   1 2.39
   4  0.531  0.648  0.437-  25 1.55  26 1.55   8 2.39   1 2.39
   5  0.385  0.515  0.552-  22 1.55  10 2.39   9 2.39   2 2.39
   6  0.613  0.525  0.565-  15 1.55  14 1.55   8 2.39   7 2.39
   7  0.557  0.433  0.512-  13 1.55   3 2.39   6 2.39   9 2.39
   8  0.547  0.624  0.554-  19 1.55   4 2.39   6 2.39  10 2.39
   9  0.451  0.416  0.564-  12 1.55  11 1.55   5 2.39   7 2.39
  10  0.440  0.606  0.605-  20 1.55  21 1.55   5 2.39   8 2.39
  11  0.415  0.357  0.529-   9 1.55
  12  0.461  0.400  0.639-   9 1.55
  13  0.600  0.369  0.520-   7 1.55
  14  0.682  0.536  0.531-   6 1.55
  15  0.623  0.509  0.640-   6 1.55
  16  0.611  0.469  0.363-   3 1.55
  17  0.506  0.398  0.362-   3 1.55
  18  0.465  0.572  0.309-   1 1.55
  19  0.583  0.683  0.588-   8 1.55
  20  0.451  0.590  0.680-  10 1.55
  21  0.397  0.670  0.598-  10 1.55
  22  0.316  0.504  0.586-   5 1.55
  23  0.333  0.479  0.402-   2 1.55
  24  0.326  0.603  0.429-   2 1.55
  25  0.488  0.712  0.430-   4 1.55
  26  0.600  0.659  0.404-   4 1.55
 
  LATTYP: Found a simple cubic cell.
 ALAT       =    20.0000000000
  
  Lattice vectors:
  
 A1 = (  20.0000000000,   0.0000000000,   0.0000000000)
 A2 = (   0.0000000000,  20.0000000000,   0.0000000000)
 A3 = (   0.0000000000,   0.0000000000,  20.0000000000)


Analysis of symmetry for initial positions (statically):
=====================================================================
 Subroutine PRICEL returns:
 Original cell was already a primitive cell.
 

 Routine SETGRP: Setting up the symmetry group for a 
 simple cubic supercell.


 Subroutine GETGRP returns: Found  1 space group operations
 (whereof  1 operations were pure point group operations)
 out of a pool of 48 trial point group operations.


The static configuration has the point symmetry C_1 .


Analysis of symmetry for dynamics (positions and initial velocities):
=====================================================================
 Subroutine PRICEL returns:
 Original cell was already a primitive cell.
 

 Routine SETGRP: Setting up the symmetry group for a 
 simple cubic supercell.


 Subroutine GETGRP returns: Found  1 space group operations
 (whereof  1 operations were pure point group operations)
 out of a pool of 48 trial point group operations.


The dynamic configuration has the point symmetry C_1 .


 Subroutine INISYM returns: Found  1 space group operations
 (whereof  1 operations are pure point group operations),
 and found     1 'primitive' translations

 
 
 KPOINTS: Automatic mesh                          

Automatic generation of k-mesh.
Space group operators:
 irot       det(A)        alpha          n_x          n_y          n_z        tau_x        tau_y        tau_z
    1     1.000000     0.000000     1.000000     0.000000     0.000000     0.000000     0.000000     0.000000
 
 Subroutine IBZKPT returns following result:
 ===========================================
 
 Found      1 irreducible k-points:
 
 Following reciprocal coordinates:
            Coordinates               Weight
  0.000000  0.000000  0.000000      1.000000
 
 Following cartesian coordinates:
            Coordinates               Weight
  0.000000  0.000000  0.000000      1.000000
 


--------------------------------------------------------------------------------------------------------




 Dimension of arrays:
   k-points           NKPTS =      1   k-points in BZ     NKDIM =      1   number of bands    NBANDS=     42
   number of dos      NEDOS =    301   number of ions     NIONS =     26
   non local maximal  LDIM  =      5   non local SUM 2l+1 LMDIM =     13
   total plane-waves  NPLWV = 941192
   max r-space proj   IRMAX =      1   max aug-charges    IRDMAX=   6593
   dimension x,y,z NGX =    98 NGY =   98 NGZ =   98
   dimension x,y,z NGXF=   196 NGYF=  196 NGZF=  196
   support grid    NGXF=   196 NGYF=  196 NGZF=  196
   ions per type =               6   4  16
   NGX,Y,Z   is equivalent  to a cutoff of   8.15,  8.15,  8.15 a.u.
   NGXF,Y,Z  is equivalent  to a cutoff of  16.29, 16.29, 16.29 a.u.

 SYSTEM =  SiGe                                    
 POSCAR =  SiGeH16                                 

 Startparameter for this run:
   NWRITE =      2    write-flag & timer
   PREC   = normal    normal or accurate (medium, high low for compatibility)
   ISTART =      0    job   : 0-new  1-cont  2-samecut
   ICHARG =      2    charge: 1-file 2-atom 10-const
   ISPIN  =      1    spin polarized calculation?
   LNONCOLLINEAR =      F non collinear calculations
   LSORBIT =      F    spin-orbit coupling
   INIWAV =      1    electr: 0-lowe 1-rand  2-diag
   LASPH  =      F    aspherical Exc in radial PAW
   METAGGA=      F    non-selfconsistent MetaGGA calc.

 Electronic Relaxation 1
   ENCUT  =  400.0 eV  29.40 Ry    5.42 a.u.  32.61 32.61 32.61*2*pi/ulx,y,z
   ENINI  =  400.0     initial cutoff
   ENAUG  =  400.0 eV  augmentation charge cutoff
   NELM   =     60;   NELMIN=  2; NELMDL= -5     # of ELM steps 
   EDIFF  = 0.1E-05   stopping-criterion for ELM
   LREAL  =      F    real-space projection
   NLSPLINE    = F    spline interpolate recip. space projectors
   LCOMPAT=      F    compatible to vasp.4.4
   GGA_COMPAT  = T    GGA compatible to vasp.4.4-vasp.4.6
   LMAXPAW     = -100 max onsite density
   LMAXMIX     =    2 max onsite mixed and CHGCAR
   VOSKOWN=      0    Vosko Wilk Nusair interpolation
   ROPT   =    0.00000   0.00000   0.00000
 Ionic relaxation
   EDIFFG = -.2E-01   stopping-criterion for IOM
   NSW    =    200    number of steps for IOM
   NBLOCK =      1;   KBLOCK =    200    inner block; outer block 
   IBRION =      2    ionic relax: 0-MD 1-quasi-New 2-CG
   NFREE  =      1    steps in history (QN), initial steepest desc. (CG)
   ISIF   =      2    stress and relaxation
   IWAVPR =     11    prediction:  0-non 1-charg 2-wave 3-comb
   ISYM   =      2    0-nonsym 1-usesym 2-fastsym
   LCORR  =      T    Harris-Foulkes like correction to forces

   POTIM  = 0.5000    time-step for ionic-motion
   TEIN   =    0.0    initial temperature
   TEBEG  =    0.0;   TEEND  =   0.0 temperature during run
   SMASS  =  -3.00    Nose mass-parameter (am)
   estimated Nose-frequenzy (Omega)   =  0.10E-29 period in steps =****** mass=  -0.914E-26a.u.
   SCALEE = 1.0000    scale energy and forces
   NPACO  =    256;   APACO  = 16.0  distance and # of slots for P.C.
   PSTRESS=    0.0 pullay stress

  Mass of Ions in am
   POMASS =  28.09 72.61  1.00
  Ionic Valenz
   ZVAL   =   4.00  4.00  1.00
  Atomic Wigner-Seitz radii
   RWIGS  =  -1.00 -1.00 -1.00
  virtual crystal weights 
   VCA    =   1.00  1.00  1.00
   NELECT =      56.0000    total number of electrons
   NUPDOWN=      -1.0000    fix difference up-down

 DOS related values:
   EMIN   =  10.00;   EMAX   =-10.00  energy-range for DOS
   EFERMI =   0.00
   ISMEAR =     0;   SIGMA  =   0.20  broadening in eV -4-tet -1-fermi 0-gaus

 Electronic relaxation 2 (details)
   IALGO  =     38    algorithm
   LDIAG  =      T    sub-space diagonalisation (order eigenvalues)
   LSUBROT=      F    optimize rotation matrix (better conditioning)
   TURBO    =      0    0=normal 1=particle mesh
   IRESTART =      0    0=no restart 2=restart with 2 vectors
   NREBOOT  =      0    no. of reboots
   NMIN     =      0    reboot dimension
   EREF     =   0.00    reference energy to select bands
   IMIX   =      4    mixing-type and parameters
     AMIX     =   0.40;   BMIX     =  1.00
     AMIX_MAG =   1.60;   BMIX_MAG =  1.00
     AMIN     =   0.10
     WC   =   100.;   INIMIX=   1;  MIXPRE=   1;  MAXMIX= -45

 Intra band minimization:
   WEIMIN = 0.0010     energy-eigenvalue tresh-hold
   EBREAK =  0.60E-08  absolut break condition
   DEPER  =   0.30     relativ break condition  

   TIME   =   0.40     timestep for ELM

  volume/ion in A,a.u.               =     307.69      2076.41
  Fermi-wavevector in a.u.,A,eV,Ry     =   0.313166  0.591797  1.334361  0.098073
  Thomas-Fermi vector in A             =   1.193276
 
 Write flags
   LWAVE        =      T    write WAVECAR
   LDOWNSAMPLE  =      F    k-point downsampling of WAVECAR
   LCHARG       =      T    write CHGCAR
   LVTOT        =      F    write LOCPOT, total local potential
   LVHAR        =      F    write LOCPOT, Hartree potential only
   LELF         =      F    write electronic localiz. function (ELF)
   LORBIT       =      0    0 simple, 1 ext, 2 COOP (PROOUT), +10 PAW based schemes


 Dipole corrections
   LMONO  =      F    monopole corrections only (constant potential shift)
   LDIPOL =      F    correct potential (dipole corrections)
   IDIPOL =      0    1-x, 2-y, 3-z, 4-all directions 
   EPSILON=  1.0000000 bulk dielectric constant

 Exchange correlation treatment:
   GGA     =    --    GGA type
   LEXCH   =     8    internal setting for exchange type
   VOSKOWN=      0    Vosko Wilk Nusair interpolation
   LHFCALC =     F    Hartree Fock is set to
   LHFONE  =     F    Hartree Fock one center treatment
   AEXX    =    0.0000 exact exchange contribution

 Linear response parameters
   LEPSILON=     F    determine dielectric tensor
   LRPA    =     F    only Hartree local field effects (RPA)
   LNABLA  =     F    use nabla operator in PAW spheres
   LVEL    =     F    velocity operator in full k-point grid
   LINTERFAST=   F  fast interpolation
   KINTER  =     0    interpolate to denser k-point grid
   CSHIFT  =0.1000    complex shift for real part using Kramers Kronig
   OMEGAMAX=  -1.0    maximum frequency
   DEG_THRESHOLD= 0.2000000E-02 threshold for treating states as degnerate
   RTIME   =   -0.100 relaxation time in fs
  (WPLASMAI=    0.000 imaginary part of plasma frequency in eV, 0.658/RTIME)
   DFIELD  = 0.0000000 0.0000000 0.0000000 field for delta impulse in time
 
 Orbital magnetization related:
   ORBITALMAG=     F  switch on orbital magnetization
   LCHIMAG   =     F  perturbation theory with respect to B field
   DQ        =  0.001000  dq finite difference perturbation B field
   LLRAUG    =     F  two centre corrections for induced B field



--------------------------------------------------------------------------------------------------------


 conjugate gradient relaxation of ions
 charge density and potential will be updated during run
 non-spin polarized calculation
 Variant of blocked Davidson
 Davidson routine will perform the subspace rotation
 perform sub-space diagonalisation
    after iterative eigenvector-optimisation
 modified Broyden-mixing scheme, WC =      100.0
 initial mixing is a Kerker type mixing with AMIX =  0.4000 and BMIX =      1.0000
 Hartree-type preconditioning will be used
 using additional bands           14
 reciprocal scheme for non local part
 use partial core corrections
 calculate Harris-corrections to forces 
   (improved forces if not selfconsistent)
 use gradient corrections 
 use of overlap-Matrix (Vanderbilt PP)
 Gauss-broadening in eV      SIGMA  =   0.20


--------------------------------------------------------------------------------------------------------


  energy-cutoff  :      400.00
  volume of cell :     8000.00
      direct lattice vectors                 reciprocal lattice vectors
    20.000000000  0.000000000  0.000000000     0.050000000  0.000000000  0.000000000
     0.000000000 20.000000000  0.000000000     0.000000000  0.050000000  0.000000000
     0.000000000  0.000000000 20.000000000     0.000000000  0.000000000  0.050000000

  length of vectors
    20.000000000 20.000000000 20.000000000     0.050000000  0.050000000  0.050000000


 
 k-points in units of 2pi/SCALE and weight: Automatic mesh                          
   0.00000000  0.00000000  0.00000000       1.000
 
 k-points in reciprocal lattice and weights: Automatic mesh                          
   0.00000000  0.00000000  0.00000000       1.000
 
 position of ions in fractional coordinates (direct lattice) 
   0.47547100  0.55626000  0.38465300
   0.36907800  0.53906000  0.43641200
   0.54179100  0.45744600  0.39613600
   0.53111600  0.64794100  0.43749600
   0.38461900  0.51474100  0.55243500
   0.61299700  0.52481700  0.56496600
   0.55736800  0.43311000  0.51215000
   0.54669200  0.62364400  0.55351800
   0.45095700  0.41593600  0.56388300
   0.44028400  0.60643000  0.60524300
   0.41490100  0.35665000  0.52940300
   0.46117000  0.40042600  0.63910800
   0.60034800  0.36907000  0.51957800
   0.68182700  0.53600700  0.53118700
   0.62280400  0.50903400  0.64018900
   0.61080000  0.46880600  0.36278200
   0.50550800  0.39805500  0.36207700
   0.46538400  0.57201900  0.30946400
   0.58275500  0.68306700  0.58775000
   0.45052500  0.59044300  0.68036400
   0.39732000  0.67044900  0.59753500
   0.31566200  0.50359800  0.58596500
   0.33322800  0.47946500  0.40225200
   0.32629100  0.60324700  0.42912600
   0.48792300  0.71185500  0.43020800
   0.60015100  0.65882400  0.40403700
 
 position of ions in cartesian coordinates  (Angst):
   9.50942000 11.12520000  7.69306000
   7.38156000 10.78120000  8.72824000
  10.83582000  9.14892000  7.92272000
  10.62232000 12.95882000  8.74992000
   7.69238000 10.29482000 11.04870000
  12.25994000 10.49634000 11.29932000
  11.14736000  8.66220000 10.24300000
  10.93384000 12.47288000 11.07036000
   9.01914000  8.31872000 11.27766000
   8.80568000 12.12860000 12.10486000
   8.29802000  7.13300000 10.58806000
   9.22340000  8.00852000 12.78216000
  12.00696000  7.38140000 10.39156000
  13.63654000 10.72014000 10.62374000
  12.45608000 10.18068000 12.80378000
  12.21600000  9.37612000  7.25564000
  10.11016000  7.96110000  7.24154000
   9.30768000 11.44038000  6.18928000
  11.65510000 13.66134000 11.75500000
   9.01050000 11.80886000 13.60728000
   7.94640000 13.40898000 11.95070000
   6.31324000 10.07196000 11.71930000
   6.66456000  9.58930000  8.04504000
   6.52582000 12.06494000  8.58252000
   9.75846000 14.23710000  8.60416000
  12.00302000 13.17648000  8.08074000
 


--------------------------------------------------------------------------------------------------------


 k-point  1 :   0.0000 0.0000 0.0000  plane waves:  145165

 maximum and minimum number of plane-waves per node :     24209    24180

 maximum number of plane-waves:    145165
 maximum index in each direction: 
   IXMAX=   32   IYMAX=   32   IZMAX=   32
   IXMIN=  -32   IYMIN=  -32   IZMIN=  -32


 parallel 3D FFT for wavefunctions:
    minimum data exchange during FFTs selected (reduces bandwidth)
 parallel 3D FFT for charge:
    minimum data exchange during FFTs selected (reduces bandwidth)


 total amount of memory used by VASP MPI-rank0   131440. kBytes
=======================================================================

   base      :      30000. kBytes
   nonl-proj :      17624. kBytes
   fftplans  :      26957. kBytes
   grid      :      48673. kBytes
   one-center:         40. kBytes
   wavefun   :       8146. kBytes
 
     INWAV:  cpu time    0.0000: real time    0.0003
 Broyden mixing: mesh for mixing (old mesh)
   NGX = 65   NGY = 65   NGZ = 65
  (NGX  =196   NGY  =196   NGZ  =196)
  gives a total of 274625 points

 initial charge density was supplied:
 charge density of overlapping atoms calculated
 number of electron      56.0000000 magnetization 
 keeping initial charge density in first step


--------------------------------------------------------------------------------------------------------


 Maximum index for augmentation-charges          558 (set IRDMAX)


--------------------------------------------------------------------------------------------------------


 First call to EWALD:  gamma=   0.089
 Maximum number of real-space cells 3x 3x 3
 Maximum number of reciprocal cells 3x 3x 3

    FEWALD:  cpu time    0.0020: real time    0.0026


--------------------------------------- Iteration      1(   1)  ---------------------------------------


    POTLOK:  cpu time    1.7517: real time    1.7641
    SETDIJ:  cpu time    0.0070: real time    0.0074
     EDDAV:  cpu time   10.6774: real time   10.6771
       DOS:  cpu time    0.0010: real time    0.0006
    --------------------------------------------
      LOOP:  cpu time   12.4371: real time   12.4492

 eigenvalue-minimisations  :   116
 total energy-change (2. order) : 0.2014164E+03  (-0.1048849E+04)
 number of electron      56.0000000 magnetization 
 augmentation part       56.0000000 magnetization 

 Free energy of the ion-electron system (eV)
  ---------------------------------------------------
  alpha Z        PSCENC =         1.96423985
  Ewald energy   TEWEN  =      2629.98113996
  -Hartree energ DENC   =     -3442.39079292
  -exchange      EXHF   =         0.00000000
  -V(xc)+E(xc)   XCENC  =       -53.16823445
  PAW double counting   =       915.46801746     -752.10009045
  entropy T*S    EENTRO =        -0.43017128
  eigenvalues    EBANDS =      -335.94301930
  atomic energy  EATOM  =      1238.03527989
  Solvation  Ediel_sol  =         0.00000000
  ---------------------------------------------------
  free energy    TOTEN  =       201.41636875 eV

  energy without entropy =      201.84654003  energy(sigma->0) =      201.63145439


--------------------------------------------------------------------------------------------------------




--------------------------------------- Iteration      1(   2)  ---------------------------------------


     EDDAV:  cpu time   12.8251: real time   12.8242
       DOS:  cpu time    0.0010: real time    0.0005
    --------------------------------------------
      LOOP:  cpu time   12.8261: real time   12.8247

 eigenvalue-minimisations  :   144
 total energy-change (2. order) :-0.2308843E+03  (-0.2160048E+03)
 number of electron      56.0000000 magnetization 
 augmentation part       56.0000000 magnetization 

 Free energy of the ion-electron system (eV)
  ---------------------------------------------------
  alpha Z        PSCENC =         1.96423985
  Ewald energy   TEWEN  =      2629.98113996
  -Hartree energ DENC   =     -3442.39079292
  -exchange      EXHF   =         0.00000000
  -V(xc)+E(xc)   XCENC  =       -53.16823445
  PAW double counting   =       915.46801746     -752.10009045
  entropy T*S    EENTRO =        -0.00000000
  eigenvalues    EBANDS =      -567.25753713
  atomic energy  EATOM  =      1238.03527989
  Solvation  Ediel_sol  =         0.00000000
  ---------------------------------------------------
  free energy    TOTEN  =       -29.46797780 eV

  energy without entropy =      -29.46797780  energy(sigma->0) =      -29.46797780


--------------------------------------------------------------------------------------------------------




--------------------------------------- Iteration      1(   3)  ---------------------------------------


     EDDAV:  cpu time   10.4944: real time   10.7568
       DOS:  cpu time    0.0000: real time    0.0006
    --------------------------------------------
      LOOP:  cpu time   10.4944: real time   10.7574

 eigenvalue-minimisations  :   112
 total energy-change (2. order) :-0.7353558E+02  (-0.7336146E+02)
 number of electron      56.0000000 magnetization 
 augmentation part       56.0000000 magnetization 

 Free energy of the ion-electron system (eV)
  ---------------------------------------------------
  alpha Z        PSCENC =         1.96423985
  Ewald energy   TEWEN  =      2629.98113996
  -Hartree energ DENC   =     -3442.39079292
  -exchange      EXHF   =         0.00000000
  -V(xc)+E(xc)   XCENC  =       -53.16823445
  PAW double counting   =       915.46801746     -752.10009045
  entropy T*S    EENTRO =        -0.00000000
  eigenvalues    EBANDS =      -640.79311373
  atomic energy  EATOM  =      1238.03527989
  Solvation  Ediel_sol  =         0.00000000
  ---------------------------------------------------
  free energy    TOTEN  =      -103.00355439 eV

  energy without entropy =     -103.00355439  energy(sigma->0) =     -103.00355439


--------------------------------------------------------------------------------------------------------




--------------------------------------- Iteration      1(   4)  ---------------------------------------


     EDDAV:  cpu time    9.8365: real time    9.8324
       DOS:  cpu time    0.0000: real time    0.0005
    --------------------------------------------
      LOOP:  cpu time    9.8365: real time    9.8329

 eigenvalue-minimisations  :   104
 total energy-change (2. order) :-0.4111211E+01  (-0.4094478E+01)
 number of electron      56.0000000 magnetization 
 augmentation part       56.0000000 magnetization 

 Free energy of the ion-electron system (eV)
  ---------------------------------------------------
  alpha Z        PSCENC =         1.96423985
  Ewald energy   TEWEN  =      2629.98113996
  -Hartree energ DENC   =     -3442.39079292
  -exchange      EXHF   =         0.00000000
  -V(xc)+E(xc)   XCENC  =       -53.16823445
  PAW double counting   =       915.46801746     -752.10009045
  entropy T*S    EENTRO =        -0.00000000
  eigenvalues    EBANDS =      -644.90432436
  atomic energy  EATOM  =      1238.03527989
  Solvation  Ediel_sol  =         0.00000000
  ---------------------------------------------------
  free energy    TOTEN  =      -107.11476502 eV

  energy without entropy =     -107.11476502  energy(sigma->0) =     -107.11476502


--------------------------------------------------------------------------------------------------------




--------------------------------------- Iteration      1(   5)  ---------------------------------------


     EDDAV:  cpu time   12.2321: real time   12.2278
       DOS:  cpu time    0.0000: real time    0.0005
    CHARGE:  cpu time    0.4849: real time    0.4841
    MIXING:  cpu time    0.0420: real time    0.0424
    --------------------------------------------
      LOOP:  cpu time   12.7591: real time   12.7548

 eigenvalue-minimisations  :   136
 total energy-change (2. order) :-0.8050193E-01  (-0.8045400E-01)
 number of electron      56.0000031 magnetization 
 augmentation part       -3.5459506 magnetization 

 Broyden mixing:
  rms(total) = 0.15082E+01    rms(broyden)= 0.15081E+01
  rms(prec ) = 0.16046E+01
  weight for this iteration     100.00

 Free energy of the ion-electron system (eV)
  ---------------------------------------------------
  alpha Z        PSCENC =         1.96423985
  Ewald energy   TEWEN  =      2629.98113996
  -Hartree energ DENC   =     -3442.39079292
  -exchange      EXHF   =         0.00000000
  -V(xc)+E(xc)   XCENC  =       -53.16823445
  PAW double counting   =       915.46801746     -752.10009045
  entropy T*S    EENTRO =        -0.00000000
  eigenvalues    EBANDS =      -644.98482628
  atomic energy  EATOM  =      1238.03527989
  Solvation  Ediel_sol  =         0.00000000
  ---------------------------------------------------
  free energy    TOTEN  =      -107.19526695 eV

  energy without entropy =     -107.19526695  energy(sigma->0) =     -107.19526695


--------------------------------------------------------------------------------------------------------




--------------------------------------- Iteration      1(   6)  ---------------------------------------


    POTLOK:  cpu time    1.6917: real time    1.6923
    SETDIJ:  cpu time    0.0080: real time    0.0077
     EDDAV:  cpu time    9.8755: real time    9.8725
       DOS:  cpu time    0.0010: real time    0.0003
    CHARGE:  cpu time    0.4759: real time    0.4760
    MIXING:  cpu time    0.0450: real time    0.0449
    --------------------------------------------
      LOOP:  cpu time   12.0972: real time   12.0938

 eigenvalue-minimisations  :   104
 total energy-change (2. order) : 0.3238111E+01  (-0.1588062E+00)
 number of electron      56.0000030 magnetization 
 augmentation part       -3.5468942 magnetization 

 Broyden mixing:
  rms(total) = 0.87537E+00    rms(broyden)= 0.87537E+00
  rms(prec ) = 0.93411E+00
  weight for this iteration     100.00

 eigenvalues of (default mixing * dielectric matrix)
  average eigenvalue GAMMA=   2.3112
  2.3112

 Free energy of the ion-electron system (eV)
  ---------------------------------------------------
  alpha Z        PSCENC =         1.96423985
  Ewald energy   TEWEN  =      2629.98113996
  -Hartree energ DENC   =     -3473.81540380
  -exchange      EXHF   =         0.00000000
  -V(xc)+E(xc)   XCENC  =       -49.53087826
  PAW double counting   =      1844.43454148    -1681.83032433
  entropy T*S    EENTRO =        -0.00000000
  eigenvalues    EBANDS =      -613.19575118
  atomic energy  EATOM  =      1238.03527989
  Solvation  Ediel_sol  =         0.00000000
  ---------------------------------------------------
  free energy    TOTEN  =      -103.95715640 eV

  energy without entropy =     -103.95715640  energy(sigma->0) =     -103.95715640


--------------------------------------------------------------------------------------------------------




--------------------------------------- Iteration      1(   7)  ---------------------------------------


    POTLOK:  cpu time    1.7007: real time    1.7005
    SETDIJ:  cpu time    0.0080: real time    0.0078
     EDDAV:  cpu time    9.8805: real time    9.8772
       DOS:  cpu time    0.0010: real time    0.0004
    CHARGE:  cpu time    0.4949: real time    0.4955
    MIXING:  cpu time    0.0470: real time    0.0466
    --------------------------------------------
      LOOP:  cpu time   12.1322: real time   12.1282

 eigenvalue-minimisations  :   104
 total energy-change (2. order) : 0.1698018E+01  (-0.4155592E+00)
 number of electron      56.0000028 magnetization 
 augmentation part       -3.5447400 magnetization 

 Broyden mixing:
  rms(total) = 0.12240E+00    rms(broyden)= 0.12225E+00
  rms(prec ) = 0.15352E+00
  weight for this iteration     100.00

 eigenvalues of (default mixing * dielectric matrix)
  average eigenvalue GAMMA=   1.8289
  1.6635  1.9944

 Free energy of the ion-electron system (eV)
  ---------------------------------------------------
  alpha Z        PSCENC =         1.96423985
  Ewald energy   TEWEN  =      2629.98113996
  -Hartree energ DENC   =     -3530.00563815
  -exchange      EXHF   =         0.00000000
  -V(xc)+E(xc)   XCENC  =       -43.74165925
  PAW double counting   =      3904.99123846    -3743.41719956
  entropy T*S    EENTRO =        -0.00000000
  eigenvalues    EBANDS =      -560.06653965
  atomic energy  EATOM  =      1238.03527989
  Solvation  Ediel_sol  =         0.00000000
  ---------------------------------------------------
  free energy    TOTEN  =      -102.25913845 eV

  energy without entropy =     -102.25913845  energy(sigma->0) =     -102.25913845


--------------------------------------------------------------------------------------------------------




--------------------------------------- Iteration      1(   8)  ---------------------------------------


    POTLOK:  cpu time    1.7027: real time    1.7020
    SETDIJ:  cpu time    0.0070: real time    0.0076
     EDDAV:  cpu time   10.7194: real time   10.7146
       DOS:  cpu time    0.0000: real time    0.0003
    CHARGE:  cpu time    0.4849: real time    0.4843
    MIXING:  cpu time    0.0480: real time    0.0485
    --------------------------------------------
      LOOP:  cpu time   12.9620: real time   12.9573

 eigenvalue-minimisations  :   104
 total energy-change (2. order) : 0.5031334E-01  (-0.2726706E-01)
 number of electron      56.0000028 magnetization 
 augmentation part       -3.5422118 magnetization 

 Broyden mixing:
  rms(total) = 0.62453E-01    rms(broyden)= 0.62438E-01
  rms(prec ) = 0.81895E-01
  weight for this iteration     100.00

 eigenvalues of (default mixing * dielectric matrix)
  average eigenvalue GAMMA=   1.9721
  2.6341  1.6412  1.6412

 Free energy of the ion-electron system (eV)
  ---------------------------------------------------
  alpha Z        PSCENC =         1.96423985
  Ewald energy   TEWEN  =      2629.98113996
  -Hartree energ DENC   =     -3537.60079759
  -exchange      EXHF   =         0.00000000
  -V(xc)+E(xc)   XCENC  =       -43.79391883
  PAW double counting   =      3911.06097324    -3749.40092362
  entropy T*S    EENTRO =        -0.00000000
  eigenvalues    EBANDS =      -552.45481801
  atomic energy  EATOM  =      1238.03527989
  Solvation  Ediel_sol  =         0.00000000
  ---------------------------------------------------
  free energy    TOTEN  =      -102.20882512 eV

  energy without entropy =     -102.20882512  energy(sigma->0) =     -102.20882512


--------------------------------------------------------------------------------------------------------




--------------------------------------- Iteration      1(   9)  ---------------------------------------


    POTLOK:  cpu time    1.7247: real time    1.7403
    SETDIJ:  cpu time    0.0080: real time    0.0077
     EDDAV:  cpu time   11.6462: real time   11.6448
       DOS:  cpu time    0.0000: real time    0.0003
    CHARGE:  cpu time    0.4839: real time    0.4837
    MIXING:  cpu time    0.0510: real time    0.0513
    --------------------------------------------
      LOOP:  cpu time   13.9139: real time   13.9280

 eigenvalue-minimisations  :   128
 total energy-change (2. order) : 0.3588359E-01  (-0.8115717E-02)
 number of electron      56.0000028 magnetization 
 augmentation part       -3.5289279 magnetization 

 Broyden mixing:
  rms(total) = 0.34172E-01    rms(broyden)= 0.34171E-01
  rms(prec ) = 0.45457E-01
  weight for this iteration     100.00

 eigenvalues of (default mixing * dielectric matrix)
  average eigenvalue GAMMA=   1.7398
  2.5109  1.8257  1.8257  0.7968

 Free energy of the ion-electron system (eV)
  ---------------------------------------------------
  alpha Z        PSCENC =         1.96423985
  Ewald energy   TEWEN  =      2629.98113996
  -Hartree energ DENC   =     -3549.55764719
  -exchange      EXHF   =         0.00000000
  -V(xc)+E(xc)   XCENC  =       -43.11045653
  PAW double counting   =      4046.10754254    -3884.47865713
  entropy T*S    EENTRO =        -0.00000000
  eigenvalues    EBANDS =      -541.11438292
  atomic energy  EATOM  =      1238.03527989
  Solvation  Ediel_sol  =         0.00000000
  ---------------------------------------------------
  free energy    TOTEN  =      -102.17294153 eV

  energy without entropy =     -102.17294153  energy(sigma->0) =     -102.17294153


--------------------------------------------------------------------------------------------------------




--------------------------------------- Iteration      1(  10)  ---------------------------------------


    POTLOK:  cpu time    1.7157: real time    1.7156
    SETDIJ:  cpu time    0.0080: real time    0.0076
     EDDAV:  cpu time   10.4974: real time   10.4958
       DOS:  cpu time    0.0010: real time    0.0004
    CHARGE:  cpu time    0.4869: real time    0.4873
    MIXING:  cpu time    0.0540: real time    0.0540
    --------------------------------------------
      LOOP:  cpu time   12.7631: real time   12.7607

 eigenvalue-minimisations  :   112
 total energy-change (2. order) :-0.1847551E-03  (-0.3060973E-03)
 number of electron      56.0000028 magnetization 
 augmentation part       -3.5280641 magnetization 

 Broyden mixing:
  rms(total) = 0.16701E-01    rms(broyden)= 0.16701E-01
  rms(prec ) = 0.29616E-01
  weight for this iteration     100.00

 eigenvalues of (default mixing * dielectric matrix)
  average eigenvalue GAMMA=   1.8742
  2.8091  2.2386  1.0547  1.6342  1.6342

 Free energy of the ion-electron system (eV)
  ---------------------------------------------------
  alpha Z        PSCENC =         1.96423985
  Ewald energy   TEWEN  =      2629.98113996
  -Hartree energ DENC   =     -3551.54262686
  -exchange      EXHF   =         0.00000000
  -V(xc)+E(xc)   XCENC  =       -43.10299336
  PAW double counting   =      3972.55142691    -3810.87938666
  entropy T*S    EENTRO =        -0.00000000
  eigenvalues    EBANDS =      -539.18020602
  atomic energy  EATOM  =      1238.03527989
  Solvation  Ediel_sol  =         0.00000000
  ---------------------------------------------------
  free energy    TOTEN  =      -102.17312628 eV

  energy without entropy =     -102.17312628  energy(sigma->0) =     -102.17312628


--------------------------------------------------------------------------------------------------------




--------------------------------------- Iteration      1(  11)  ---------------------------------------


    POTLOK:  cpu time    1.7297: real time    1.7311
    SETDIJ:  cpu time    0.0080: real time    0.0077
     EDDAV:  cpu time    9.8515: real time    9.8577
       DOS:  cpu time    0.0010: real time    0.0005
    CHARGE:  cpu time    0.4819: real time    0.4824
    MIXING:  cpu time    0.0560: real time    0.0561
    --------------------------------------------
      LOOP:  cpu time   12.1282: real time   12.1355

 eigenvalue-minimisations  :   104
 total energy-change (2. order) : 0.2052399E-03  (-0.6726675E-03)
 number of electron      56.0000028 magnetization 
 augmentation part       -3.5273043 magnetization 

 Broyden mixing:
  rms(total) = 0.80188E-02    rms(broyden)= 0.80185E-02
  rms(prec ) = 0.14663E-01
  weight for this iteration     100.00

 eigenvalues of (default mixing * dielectric matrix)
  average eigenvalue GAMMA=   1.8521
  3.1618  2.5570  1.7321  1.7321  1.0504  0.8792

 Free energy of the ion-electron system (eV)
  ---------------------------------------------------
  alpha Z        PSCENC =         1.96423985
  Ewald energy   TEWEN  =      2629.98113996
  -Hartree energ DENC   =     -3558.37668307
  -exchange      EXHF   =         0.00000000
  -V(xc)+E(xc)   XCENC  =       -42.91178995
  PAW double counting   =      3927.20894213    -3765.49204174
  entropy T*S    EENTRO =        -0.00000000
  eigenvalues    EBANDS =      -532.58200811
  atomic energy  EATOM  =      1238.03527989
  Solvation  Ediel_sol  =         0.00000000
  ---------------------------------------------------
  free energy    TOTEN  =      -102.17292104 eV

  energy without entropy =     -102.17292104  energy(sigma->0) =     -102.17292104


--------------------------------------------------------------------------------------------------------




--------------------------------------- Iteration      1(  12)  ---------------------------------------


    POTLOK:  cpu time    1.7357: real time    1.7347
    SETDIJ:  cpu time    0.0080: real time    0.0076
     EDDAV:  cpu time    9.8795: real time    9.8797
       DOS:  cpu time    0.0010: real time    0.0006
    CHARGE:  cpu time    0.4849: real time    0.4839
    MIXING:  cpu time    0.0590: real time    0.0595
    --------------------------------------------
      LOOP:  cpu time   12.1681: real time   12.1660

 eigenvalue-minimisations  :   104
 total energy-change (2. order) :-0.4257022E-02  (-0.9636263E-04)
 number of electron      56.0000028 magnetization 
 augmentation part       -3.5270206 magnetization 

 Broyden mixing:
  rms(total) = 0.55802E-02    rms(broyden)= 0.55802E-02
  rms(prec ) = 0.10049E-01
  weight for this iteration     100.00

 eigenvalues of (default mixing * dielectric matrix)
  average eigenvalue GAMMA=   2.0682
  4.5392  2.6680  2.1955  1.5731  1.5731  0.9641  0.9641

 Free energy of the ion-electron system (eV)
  ---------------------------------------------------
  alpha Z        PSCENC =         1.96423985
  Ewald energy   TEWEN  =      2629.98113996
  -Hartree energ DENC   =     -3560.63637588
  -exchange      EXHF   =         0.00000000
  -V(xc)+E(xc)   XCENC  =       -42.87312256
  PAW double counting   =      3916.78607035    -3755.06519975
  entropy T*S    EENTRO =        -0.00000000
  eigenvalues    EBANDS =      -530.36920993
  atomic energy  EATOM  =      1238.03527989
  Solvation  Ediel_sol  =         0.00000000
  ---------------------------------------------------
  free energy    TOTEN  =      -102.17717806 eV

  energy without entropy =     -102.17717806  energy(sigma->0) =     -102.17717806


--------------------------------------------------------------------------------------------------------




--------------------------------------- Iteration      1(  13)  ---------------------------------------


    POTLOK:  cpu time    1.7307: real time    1.7304
    SETDIJ:  cpu time    0.0070: real time    0.0076
     EDDAV:  cpu time    9.8765: real time    9.8752
       DOS:  cpu time    0.0000: real time    0.0007
    CHARGE:  cpu time    0.4849: real time    0.4839
    MIXING:  cpu time    0.0640: real time    0.0644
    --------------------------------------------
      LOOP:  cpu time   12.1642: real time   12.1622

 eigenvalue-minimisations  :   104
 total energy-change (2. order) :-0.4491219E-02  (-0.1974317E-03)
 number of electron      56.0000028 magnetization 
 augmentation part       -3.5267692 magnetization 

 Broyden mixing:
  rms(total) = 0.34841E-02    rms(broyden)= 0.34840E-02
  rms(prec ) = 0.52581E-02
  weight for this iteration     100.00

 eigenvalues of (default mixing * dielectric matrix)
  average eigenvalue GAMMA=   2.1829
  5.6364  2.8146  2.4088  1.7864  1.7864  0.9593  0.9593  1.1123

 Free energy of the ion-electron system (eV)
  ---------------------------------------------------
  alpha Z        PSCENC =         1.96423985
  Ewald energy   TEWEN  =      2629.98113996
  -Hartree energ DENC   =     -3563.55207307
  -exchange      EXHF   =         0.00000000
  -V(xc)+E(xc)   XCENC  =       -42.82245097
  PAW double counting   =      3918.59341430    -3756.87918736
  entropy T*S    EENTRO =        -0.00000000
  eigenvalues    EBANDS =      -527.50203187
  atomic energy  EATOM  =      1238.03527989
  Solvation  Ediel_sol  =         0.00000000
  ---------------------------------------------------
  free energy    TOTEN  =      -102.18166928 eV

  energy without entropy =     -102.18166928  energy(sigma->0) =     -102.18166928


--------------------------------------------------------------------------------------------------------




--------------------------------------- Iteration      1(  14)  ---------------------------------------


    POTLOK:  cpu time    1.7707: real time    1.7839
    SETDIJ:  cpu time    0.0080: real time    0.0075
     EDDAV:  cpu time   10.4394: real time   10.4362
       DOS:  cpu time    0.0010: real time    0.0006
    CHARGE:  cpu time    0.4809: real time    0.4813
    MIXING:  cpu time    0.0720: real time    0.0708
    --------------------------------------------
      LOOP:  cpu time   12.7711: real time   12.7804

 eigenvalue-minimisations  :   112
 total energy-change (2. order) :-0.4324302E-02  (-0.3926265E-04)
 number of electron      56.0000028 magnetization 
 augmentation part       -3.5261612 magnetization 

 Broyden mixing:
  rms(total) = 0.15430E-02    rms(broyden)= 0.15430E-02
  rms(prec ) = 0.27620E-02
  weight for this iteration     100.00

 eigenvalues of (default mixing * dielectric matrix)
  average eigenvalue GAMMA=   2.2992
  6.5576  2.8708  2.8708  2.0839  1.6561  1.6561  1.0970  0.9501  0.9501

 Free energy of the ion-electron system (eV)
  ---------------------------------------------------
  alpha Z        PSCENC =         1.96423985
  Ewald energy   TEWEN  =      2629.98113996
  -Hartree energ DENC   =     -3564.35614341
  -exchange      EXHF   =         0.00000000
  -V(xc)+E(xc)   XCENC  =       -42.82932435
  PAW double counting   =      3920.93032627    -3759.21920797
  entropy T*S    EENTRO =        -0.00000000
  eigenvalues    EBANDS =      -526.69230382
  atomic energy  EATOM  =      1238.03527989
  Solvation  Ediel_sol  =         0.00000000
  ---------------------------------------------------
  free energy    TOTEN  =      -102.18599359 eV

  energy without entropy =     -102.18599359  energy(sigma->0) =     -102.18599359


--------------------------------------------------------------------------------------------------------




--------------------------------------- Iteration      1(  15)  ---------------------------------------


    POTLOK:  cpu time    1.7277: real time    1.7279
    SETDIJ:  cpu time    0.0070: real time    0.0076
     EDDAV:  cpu time   10.4504: real time   10.4459
       DOS:  cpu time    0.0010: real time    0.0009
    CHARGE:  cpu time    0.4839: real time    0.4842
    MIXING:  cpu time    0.0790: real time    0.0782
    --------------------------------------------
      LOOP:  cpu time   12.7491: real time   12.7446

 eigenvalue-minimisations  :   112
 total energy-change (2. order) :-0.4408788E-02  (-0.5280721E-04)
 number of electron      56.0000028 magnetization 
 augmentation part       -3.5259661 magnetization 

 Broyden mixing:
  rms(total) = 0.15112E-02    rms(broyden)= 0.15112E-02
  rms(prec ) = 0.19539E-02
  weight for this iteration     100.00

 eigenvalues of (default mixing * dielectric matrix)
  average eigenvalue GAMMA=   2.2981
  6.7240  3.7818  2.5994  2.1158  1.8432  1.8432  1.2047  0.9298  0.9698  0.9698

 Free energy of the ion-electron system (eV)
  ---------------------------------------------------
  alpha Z        PSCENC =         1.96423985
  Ewald energy   TEWEN  =      2629.98113996
  -Hartree energ DENC   =     -3564.55740380
  -exchange      EXHF   =         0.00000000
  -V(xc)+E(xc)   XCENC  =       -42.84028955
  PAW double counting   =      3925.24122087    -3763.52939933
  entropy T*S    EENTRO =        -0.00000000
  eigenvalues    EBANDS =      -526.48519026
  atomic energy  EATOM  =      1238.03527989
  Solvation  Ediel_sol  =         0.00000000
  ---------------------------------------------------
  free energy    TOTEN  =      -102.19040237 eV

  energy without entropy =     -102.19040237  energy(sigma->0) =     -102.19040237


--------------------------------------------------------------------------------------------------------




--------------------------------------- Iteration      1(  16)  ---------------------------------------


    POTLOK:  cpu time    1.7367: real time    1.7371
    SETDIJ:  cpu time    0.0070: real time    0.0076
     EDDAV:  cpu time   10.4794: real time   10.4758
       DOS:  cpu time    0.0000: real time    0.0003
    CHARGE:  cpu time    0.4859: real time    0.4859
    MIXING:  cpu time    0.0870: real time    0.0869
    --------------------------------------------
      LOOP:  cpu time   12.7961: real time   12.7935

 eigenvalue-minimisations  :   112
 total energy-change (2. order) :-0.1020293E-02  (-0.5179667E-05)
 number of electron      56.0000028 magnetization 
 augmentation part       -3.5261750 magnetization 

 Broyden mixing:
  rms(total) = 0.64934E-03    rms(broyden)= 0.64933E-03
  rms(prec ) = 0.98297E-03
  weight for this iteration     100.00

 eigenvalues of (default mixing * dielectric matrix)
  average eigenvalue GAMMA=   2.3947
  7.2871  4.6049  2.6064  2.6064  1.8005  1.8005  1.3782  1.3782  0.9554  0.9554
  0.9682

 Free energy of the ion-electron system (eV)
  ---------------------------------------------------
  alpha Z        PSCENC =         1.96423985
  Ewald energy   TEWEN  =      2629.98113996
  -Hartree energ DENC   =     -3564.66592379
  -exchange      EXHF   =         0.00000000
  -V(xc)+E(xc)   XCENC  =       -42.83831324
  PAW double counting   =      3924.73206393    -3763.01880741
  entropy T*S    EENTRO =        -0.00000000
  eigenvalues    EBANDS =      -526.38110185
  atomic energy  EATOM  =      1238.03527989
  Solvation  Ediel_sol  =         0.00000000
  ---------------------------------------------------
  free energy    TOTEN  =      -102.19142267 eV

  energy without entropy =     -102.19142267  energy(sigma->0) =     -102.19142267


--------------------------------------------------------------------------------------------------------




--------------------------------------- Iteration      1(  17)  ---------------------------------------


    POTLOK:  cpu time    1.7197: real time    1.7189
    SETDIJ:  cpu time    0.0080: real time    0.0076
     EDDAV:  cpu time    9.7455: real time    9.7426
       DOS:  cpu time    0.0000: real time    0.0003
    CHARGE:  cpu time    0.4899: real time    0.4895
    MIXING:  cpu time    0.1000: real time    0.0997
    --------------------------------------------
      LOOP:  cpu time   12.0632: real time   12.0587

 eigenvalue-minimisations  :   102
 total energy-change (2. order) :-0.1064140E-02  (-0.8674014E-05)
 number of electron      56.0000028 magnetization 
 augmentation part       -3.5263557 magnetization 

 Broyden mixing:
  rms(total) = 0.31477E-03    rms(broyden)= 0.31472E-03
  rms(prec ) = 0.46678E-03
  weight for this iteration     100.00

 eigenvalues of (default mixing * dielectric matrix)
  average eigenvalue GAMMA=   2.3752
  7.4790  4.9119  2.6784  2.6784  1.9275  1.9275  1.4968  1.4968  1.0009  1.0009
  0.9519  0.9519

 Free energy of the ion-electron system (eV)
  ---------------------------------------------------
  alpha Z        PSCENC =         1.96423985
  Ewald energy   TEWEN  =      2629.98113996
  -Hartree energ DENC   =     -3564.68958812
  -exchange      EXHF   =         0.00000000
  -V(xc)+E(xc)   XCENC  =       -42.84051556
  PAW double counting   =      3923.02317672    -3761.30898298
  entropy T*S    EENTRO =        -0.00000000
  eigenvalues    EBANDS =      -526.35723657
  atomic energy  EATOM  =      1238.03527989
  Solvation  Ediel_sol  =         0.00000000
  ---------------------------------------------------
  free energy    TOTEN  =      -102.19248681 eV

  energy without entropy =     -102.19248681  energy(sigma->0) =     -102.19248681


--------------------------------------------------------------------------------------------------------




--------------------------------------- Iteration      1(  18)  ---------------------------------------


    POTLOK:  cpu time    1.7167: real time    1.7165
    SETDIJ:  cpu time    0.0080: real time    0.0079
     EDDAV:  cpu time    9.9285: real time    9.9250
       DOS:  cpu time    0.0000: real time    0.0003
    CHARGE:  cpu time    0.4919: real time    0.4904
    MIXING:  cpu time    0.1050: real time    0.1052
    --------------------------------------------
      LOOP:  cpu time   12.2501: real time   12.2453

 eigenvalue-minimisations  :   104
 total energy-change (2. order) :-0.2855495E-03  (-0.9286674E-06)
 number of electron      56.0000028 magnetization 
 augmentation part       -3.5263400 magnetization 

 Broyden mixing:
  rms(total) = 0.18825E-03    rms(broyden)= 0.18823E-03
  rms(prec ) = 0.27898E-03
  weight for this iteration     100.00

 eigenvalues of (default mixing * dielectric matrix)
  average eigenvalue GAMMA=   2.4763
  8.1433  5.7132  3.1618  2.6106  2.3218  1.7783  1.7783  1.3871  1.3871  0.9592
  0.9592  0.9960  0.9960

 Free energy of the ion-electron system (eV)
  ---------------------------------------------------
  alpha Z        PSCENC =         1.96423985
  Ewald energy   TEWEN  =      2629.98113996
  -Hartree energ DENC   =     -3564.71664401
  -exchange      EXHF   =         0.00000000
  -V(xc)+E(xc)   XCENC  =       -42.84041322
  PAW double counting   =      3922.57144332    -3760.85768827
  entropy T*S    EENTRO =        -0.00000000
  eigenvalues    EBANDS =      -526.33012988
  atomic energy  EATOM  =      1238.03527989
  Solvation  Ediel_sol  =         0.00000000
  ---------------------------------------------------
  free energy    TOTEN  =      -102.19277236 eV

  energy without entropy =     -102.19277236  energy(sigma->0) =     -102.19277236


--------------------------------------------------------------------------------------------------------




--------------------------------------- Iteration      1(  19)  ---------------------------------------


    POTLOK:  cpu time    1.7277: real time    1.7409
    SETDIJ:  cpu time    0.0090: real time    0.0076
     EDDAV:  cpu time    9.3126: real time    9.3102
       DOS:  cpu time    0.0000: real time    0.0003
    CHARGE:  cpu time    0.4989: real time    0.4991
    MIXING:  cpu time    0.1190: real time    0.1186
    --------------------------------------------
      LOOP:  cpu time   11.6672: real time   11.6767

 eigenvalue-minimisations  :    96
 total energy-change (2. order) :-0.1752227E-03  (-0.6505642E-06)
 number of electron      56.0000028 magnetization 
 augmentation part       -3.5263618 magnetization 

 Broyden mixing:
  rms(total) = 0.16667E-03    rms(broyden)= 0.16666E-03
  rms(prec ) = 0.20864E-03
  weight for this iteration     100.00

 eigenvalues of (default mixing * dielectric matrix)
  average eigenvalue GAMMA=   2.4726
  8.3196  6.0952  3.3292  2.6864  1.8743  1.8743  1.8909  1.7353  1.7353  1.2404
  0.9858  0.9858  0.9317  0.9317

 Free energy of the ion-electron system (eV)
  ---------------------------------------------------
  alpha Z        PSCENC =         1.96423985
  Ewald energy   TEWEN  =      2629.98113996
  -Hartree energ DENC   =     -3564.73669800
  -exchange      EXHF   =         0.00000000
  -V(xc)+E(xc)   XCENC  =       -42.83908267
  PAW double counting   =      3922.60713699    -3760.89363627
  entropy T*S    EENTRO =        -0.00000000
  eigenvalues    EBANDS =      -526.31132732
  atomic energy  EATOM  =      1238.03527989
  Solvation  Ediel_sol  =         0.00000000
  ---------------------------------------------------
  free energy    TOTEN  =      -102.19294758 eV

  energy without entropy =     -102.19294758  energy(sigma->0) =     -102.19294758


--------------------------------------------------------------------------------------------------------




--------------------------------------- Iteration      1(  20)  ---------------------------------------


    POTLOK:  cpu time    1.7247: real time    1.7243
    SETDIJ:  cpu time    0.0080: real time    0.0075
     EDDAV:  cpu time    8.7527: real time    8.7517
       DOS:  cpu time    0.0010: real time    0.0003
    CHARGE:  cpu time    0.4919: real time    0.4910
    MIXING:  cpu time    0.1290: real time    0.1296
    --------------------------------------------
      LOOP:  cpu time   11.1073: real time   11.1045

 eigenvalue-minimisations  :    88
 total energy-change (2. order) :-0.5883741E-04  (-0.1164432E-06)
 number of electron      56.0000028 magnetization 
 augmentation part       -3.5263446 magnetization 

 Broyden mixing:
  rms(total) = 0.54307E-04    rms(broyden)= 0.54307E-04
  rms(prec ) = 0.80582E-04
  weight for this iteration     100.00

 eigenvalues of (default mixing * dielectric matrix)
  average eigenvalue GAMMA=   2.5004
  8.5938  6.3071  3.8869  2.6758  2.6758  1.9856  1.8011  1.8011  1.4092  1.4092
  1.1577  0.9732  0.9732  0.9669  0.8898

 Free energy of the ion-electron system (eV)
  ---------------------------------------------------
  alpha Z        PSCENC =         1.96423985
  Ewald energy   TEWEN  =      2629.98113996
  -Hartree energ DENC   =     -3564.74089743
  -exchange      EXHF   =         0.00000000
  -V(xc)+E(xc)   XCENC  =       -42.83996274
  PAW double counting   =      3922.49246818    -3760.77900652
  entropy T*S    EENTRO =        -0.00000000
  eigenvalues    EBANDS =      -526.30626760
  atomic energy  EATOM  =      1238.03527989
  Solvation  Ediel_sol  =         0.00000000
  ---------------------------------------------------
  free energy    TOTEN  =      -102.19300642 eV

  energy without entropy =     -102.19300642  energy(sigma->0) =     -102.19300642


--------------------------------------------------------------------------------------------------------




--------------------------------------- Iteration      1(  21)  ---------------------------------------


    POTLOK:  cpu time    1.7207: real time    1.7207
    SETDIJ:  cpu time    0.0070: real time    0.0076
     EDDAV:  cpu time    8.1388: real time    8.1360
       DOS:  cpu time    0.0010: real time    0.0003
    CHARGE:  cpu time    0.4879: real time    0.4879
    MIXING:  cpu time    0.1390: real time    0.1393
    --------------------------------------------
      LOOP:  cpu time   10.4944: real time   10.4917

 eigenvalue-minimisations  :    80
 total energy-change (2. order) :-0.2590435E-04  (-0.7977982E-07)
 number of electron      56.0000028 magnetization 
 augmentation part       -3.5263289 magnetization 

 Broyden mixing:
  rms(total) = 0.58635E-04    rms(broyden)= 0.58632E-04
  rms(prec ) = 0.73851E-04
  weight for this iteration     100.00

 eigenvalues of (default mixing * dielectric matrix)
  average eigenvalue GAMMA=   2.5081
  8.5366  6.6476  4.1061  2.9677  2.6287  1.9720  1.9720  1.7454  1.7454  1.7320
  1.1490  0.9417  0.9417  0.9860  1.0292  1.0292

 Free energy of the ion-electron system (eV)
  ---------------------------------------------------
  alpha Z        PSCENC =         1.96423985
  Ewald energy   TEWEN  =      2629.98113996
  -Hartree energ DENC   =     -3564.74763110
  -exchange      EXHF   =         0.00000000
  -V(xc)+E(xc)   XCENC  =       -42.83998339
  PAW double counting   =      3922.61495887    -3760.90155122
  entropy T*S    EENTRO =        -0.00000000
  eigenvalues    EBANDS =      -526.29948517
  atomic energy  EATOM  =      1238.03527989
  Solvation  Ediel_sol  =         0.00000000
  ---------------------------------------------------
  free energy    TOTEN  =      -102.19303232 eV

  energy without entropy =     -102.19303232  energy(sigma->0) =     -102.19303232


--------------------------------------------------------------------------------------------------------




--------------------------------------- Iteration      1(  22)  ---------------------------------------


    POTLOK:  cpu time    1.7177: real time    1.7177
    SETDIJ:  cpu time    0.0070: real time    0.0075
     EDDAV:  cpu time    8.1238: real time    8.1206
       DOS:  cpu time    0.0000: real time    0.0003
    CHARGE:  cpu time    0.4849: real time    0.4854
    MIXING:  cpu time    0.1540: real time    0.1523
    --------------------------------------------
      LOOP:  cpu time   10.4874: real time   10.4838

 eigenvalue-minimisations  :    80
 total energy-change (2. order) :-0.8539012E-05  (-0.2055742E-07)
 number of electron      56.0000028 magnetization 
 augmentation part       -3.5263394 magnetization 

 Broyden mixing:
  rms(total) = 0.20233E-04    rms(broyden)= 0.20233E-04
  rms(prec ) = 0.27452E-04
  weight for this iteration     100.00

 eigenvalues of (default mixing * dielectric matrix)
  average eigenvalue GAMMA=   2.5074
  8.8040  6.7373  4.5831  3.1444  2.5262  2.5262  1.8478  1.8478  1.6761  1.6761
  1.2008  1.2008  0.9534  0.9534  1.0144  0.9669  0.9669

 Free energy of the ion-electron system (eV)
  ---------------------------------------------------
  alpha Z        PSCENC =         1.96423985
  Ewald energy   TEWEN  =      2629.98113996
  -Hartree energ DENC   =     -3564.74632945
  -exchange      EXHF   =         0.00000000
  -V(xc)+E(xc)   XCENC  =       -42.83985893
  PAW double counting   =      3922.67926242    -3760.96576937
  entropy T*S    EENTRO =        -0.00000000
  eigenvalues    EBANDS =      -526.30100522
  atomic energy  EATOM  =      1238.03527989
  Solvation  Ediel_sol  =         0.00000000
  ---------------------------------------------------
  free energy    TOTEN  =      -102.19304086 eV

  energy without entropy =     -102.19304086  energy(sigma->0) =     -102.19304086


--------------------------------------------------------------------------------------------------------




--------------------------------------- Iteration      1(  23)  ---------------------------------------


    POTLOK:  cpu time    1.7227: real time    1.7235
    SETDIJ:  cpu time    0.0080: real time    0.0075
     EDDAV:  cpu time    8.7107: real time    8.7122
       DOS:  cpu time    0.0000: real time    0.0003
    CHARGE:  cpu time    0.4879: real time    0.4868
    MIXING:  cpu time    0.1640: real time    0.1636
    --------------------------------------------
      LOOP:  cpu time   11.0933: real time   11.0938

 eigenvalue-minimisations  :    88
 total energy-change (2. order) :-0.3171574E-05  (-0.7269280E-08)
 number of electron      56.0000028 magnetization 
 augmentation part       -3.5263477 magnetization 

 Broyden mixing:
  rms(total) = 0.17456E-04    rms(broyden)= 0.17455E-04
  rms(prec ) = 0.21986E-04
  weight for this iteration     100.00

 eigenvalues of (default mixing * dielectric matrix)
  average eigenvalue GAMMA=   2.4689
  8.8672  6.7708  4.6982  3.0756  2.5495  2.5495  1.9483  1.9483  1.6741  1.6741
  1.4543  1.2284  1.0729  1.0729  0.9321  0.9321  0.9959  0.9959

 Free energy of the ion-electron system (eV)
  ---------------------------------------------------
  alpha Z        PSCENC =         1.96423985
  Ewald energy   TEWEN  =      2629.98113996
  -Hartree energ DENC   =     -3564.74563564
  -exchange      EXHF   =         0.00000000
  -V(xc)+E(xc)   XCENC  =       -42.83994595
  PAW double counting   =      3922.64202911    -3760.92850271
  entropy T*S    EENTRO =        -0.00000000
  eigenvalues    EBANDS =      -526.30164855
  atomic energy  EATOM  =      1238.03527989
  Solvation  Ediel_sol  =         0.00000000
  ---------------------------------------------------
  free energy    TOTEN  =      -102.19304403 eV

  energy without entropy =     -102.19304403  energy(sigma->0) =     -102.19304403


--------------------------------------------------------------------------------------------------------




--------------------------------------- Iteration      1(  24)  ---------------------------------------


    POTLOK:  cpu time    1.7147: real time    1.7152
    SETDIJ:  cpu time    0.0070: real time    0.0075
     EDDAV:  cpu time    8.1328: real time    8.1309
       DOS:  cpu time    0.0000: real time    0.0003
    CHARGE:  cpu time    0.4889: real time    0.4887
    MIXING:  cpu time    0.1770: real time    0.1766
    --------------------------------------------
      LOOP:  cpu time   10.5204: real time   10.5191

 eigenvalue-minimisations  :    80
 total energy-change (2. order) :-0.2361253E-05  (-0.2671980E-08)
 number of electron      56.0000028 magnetization 
 augmentation part       -3.5263466 magnetization 

 Broyden mixing:
  rms(total) = 0.99674E-05    rms(broyden)= 0.99672E-05
  rms(prec ) = 0.12219E-04
  weight for this iteration     100.00

 eigenvalues of (default mixing * dielectric matrix)
  average eigenvalue GAMMA=   2.5342
  8.8456  7.0739  5.3145  3.7764  2.8911  2.4190  2.4190  1.8496  1.8496  1.6701
  1.6701  1.2076  1.2076  1.1341  0.9793  0.9793  0.9393  0.9393  0.9852

 Free energy of the ion-electron system (eV)
  ---------------------------------------------------
  alpha Z        PSCENC =         1.96423985
  Ewald energy   TEWEN  =      2629.98113996
  -Hartree energ DENC   =     -3564.74631897
  -exchange      EXHF   =         0.00000000
  -V(xc)+E(xc)   XCENC  =       -42.83997079
  PAW double counting   =      3922.58056382    -3760.86706452
  entropy T*S    EENTRO =        -0.00000000
  eigenvalues    EBANDS =      -526.30091564
  atomic energy  EATOM  =      1238.03527989
  Solvation  Ediel_sol  =         0.00000000
  ---------------------------------------------------
  free energy    TOTEN  =      -102.19304639 eV

  energy without entropy =     -102.19304639  energy(sigma->0) =     -102.19304639


--------------------------------------------------------------------------------------------------------




--------------------------------------- Iteration      1(  25)  ---------------------------------------


    POTLOK:  cpu time    1.7407: real time    1.7832
    SETDIJ:  cpu time    0.0080: real time    0.0081
     EDDAV:  cpu time    8.1148: real time    8.1202
       DOS:  cpu time    0.0000: real time    0.0003
    --------------------------------------------
      LOOP:  cpu time    9.8635: real time    9.9118

 eigenvalue-minimisations  :    80
 total energy-change (2. order) :-0.9955556E-06  (-0.1747697E-08)
 number of electron      56.0000028 magnetization 
 augmentation part       -3.5263466 magnetization 

 Free energy of the ion-electron system (eV)
  ---------------------------------------------------
  alpha Z        PSCENC =         1.96423985
  Ewald energy   TEWEN  =      2629.98113996
  -Hartree energ DENC   =     -3564.74712720
  -exchange      EXHF   =         0.00000000
  -V(xc)+E(xc)   XCENC  =       -42.83993768
  PAW double counting   =      3922.59438881    -3760.88089765
  entropy T*S    EENTRO =        -0.00000000
  eigenvalues    EBANDS =      -526.30013336
  atomic energy  EATOM  =      1238.03527989
  Solvation  Ediel_sol  =         0.00000000
  ---------------------------------------------------
  free energy    TOTEN  =      -102.19304739 eV

  energy without entropy =     -102.19304739  energy(sigma->0) =     -102.19304739


--------------------------------------------------------------------------------------------------------




 average (electrostatic) potential at core
  the test charge radii are     0.9892  1.1631  0.5201
  (the norm of the test charge is              1.0000)
       1 -93.3574       2 -93.4254       3 -93.4708       4 -93.4708       5 -93.4349
       6 -93.5042       7 -40.3852       8 -40.3852       9 -40.4428      10 -40.4428
      11 -41.0625      12 -41.0669      13 -41.0678      14 -40.6863      15 -40.6946
      16 -40.6982      17 -40.7037      18 -40.7096      19 -41.0683      20 -41.0669
      21 -41.0625      22 -40.6882      23 -40.7066      24 -40.7067      25 -40.7026
      26 -40.6979
 
 
 
 E-fermi :  -5.3970     XC(G=0):  -0.6080     alpha+bet : -0.3388


 k-point     1 :       0.0000    0.0000    0.0000
  band No.  band energies     occupation 
      1     -15.2274      2.00000
      2     -14.4457      2.00000
      3     -13.9712      2.00000
      4     -13.8183      2.00000
      5     -12.9803      2.00000
      6     -12.6705      2.00000
      7     -11.7124      2.00000
      8     -11.4465      2.00000
      9     -11.3557      2.00000
     10     -10.4195      2.00000
     11      -8.9685      2.00000
     12      -8.6316      2.00000
     13      -8.6217      2.00000
     14      -8.6156      2.00000
     15      -8.1978      2.00000
     16      -8.1977      2.00000
     17      -8.1791      2.00000
     18      -7.8674      2.00000
     19      -7.8585      2.00000
     20      -7.8544      2.00000
     21      -6.7852      2.00000
     22      -6.7728      2.00000
     23      -6.4917      2.00000
     24      -6.4743      2.00000
     25      -6.4523      2.00000
     26      -6.3926      2.00000
     27      -6.3715      2.00000
     28      -6.3698      2.00000
     29      -1.7217      0.00000
     30      -1.4162      0.00000
     31      -1.3720      0.00000
     32      -1.2227      0.00000
     33      -1.2105      0.00000
     34      -1.1147      0.00000
     35      -1.0516      0.00000
     36      -0.9526      0.00000
     37      -0.8668      0.00000
     38      -0.5563      0.00000
     39      -0.4255      0.00000
     40      -0.3698      0.00000
     41      -0.2497      0.00000
     42      -0.2482      0.00000


--------------------------------------------------------------------------------------------------------


 soft charge-density along one line, spin component           1
         0         1         2         3         4         5         6         7         8         9
 total charge-density along one line
 
 pseudopotential strength for first ion, spin component:           1
 19.608  27.364  -0.000   0.002   0.000  -0.001   0.004   0.000
 27.364  38.192  -0.001   0.003   0.000  -0.001   0.005   0.000
 -0.000  -0.001   4.358  -0.000   0.000   8.129  -0.000   0.000
  0.002   0.003  -0.000   4.358  -0.000  -0.000   8.129  -0.000
  0.000   0.000   0.000  -0.000   4.358   0.000  -0.000   8.129
 -0.001  -0.001   8.129  -0.000   0.000  15.174  -0.000   0.000
  0.004   0.005  -0.000   8.129  -0.000  -0.000  15.174  -0.000
  0.000   0.000   0.000  -0.000   8.129   0.000  -0.000  15.174
 total augmentation occupancy for first ion, spin component:           1
  5.586  -2.052   0.069  -0.327  -0.043  -0.021   0.098   0.013
 -2.052   0.813  -0.042   0.199   0.027   0.009  -0.045  -0.006
  0.069  -0.042   2.872  -0.093  -0.013  -0.626   0.034   0.005
 -0.327   0.199  -0.093   3.299   0.062   0.034  -0.781  -0.022
 -0.043   0.027  -0.013   0.062   2.859   0.005  -0.022  -0.621
 -0.021   0.009  -0.626   0.034   0.005   0.142  -0.010  -0.001
  0.098  -0.045   0.034  -0.781  -0.022  -0.010   0.188   0.007
  0.013  -0.006   0.005  -0.022  -0.621  -0.001   0.007   0.141


------------------------ aborting loop because EDIFF is reached ----------------------------------------


    CHARGE:  cpu time    0.4839: real time    0.4832
    FORLOC:  cpu time    0.1690: real time    0.1709
    FORNL :  cpu time    1.0778: real time    1.0765
    STRESS:  cpu time    7.4349: real time    7.4348
    FORCOR:  cpu time    1.7127: real time    1.7126
    FORHAR:  cpu time    0.5809: real time    0.5811
    MIXING:  cpu time    0.1900: real time    0.1905
    OFIELD:  cpu time    0.0000: real time    0.0000

  FORCE on cell =-STRESS in cart. coord.  units (eV):
  Direction    XX          YY          ZZ          XY          YZ          ZX
  --------------------------------------------------------------------------------------
  Alpha Z     1.96424     1.96424     1.96424
  Ewald     876.64706   876.62235   876.71007    -0.21850     0.02563    -0.50464
  Hartree  1188.71040  1187.50291  1188.53395    -0.20263    -0.14823    -0.28973
  E(xc)    -177.10694  -177.27046  -177.23565     0.02806    -0.01340    -0.08594
  Local   -2568.66388 -2567.52841 -2568.56597     0.43345     0.10209     0.76522
  n-local   272.14504   273.07579   272.78668    -0.14444     0.09248     0.41957
  augment   -27.46514   -27.48029   -27.47567     0.00240    -0.00124    -0.00792
  Kinetic   429.73958   429.20954   429.32449     0.07573    -0.03927    -0.21039
  Fock        0.00000     0.00000     0.00000     0.00000     0.00000     0.00000
  -------------------------------------------------------------------------------------
  Total      -4.02965    -3.90434    -3.95785    -0.02594     0.01806     0.08616
  in kB      -0.80703    -0.78193    -0.79265    -0.00519     0.00362     0.01726
  external pressure =       -0.79 kB  Pullay stress =        0.00 kB


 VOLUME and BASIS-vectors are now :
 -----------------------------------------------------------------------------
  energy-cutoff  :      400.00
[...]
    SETDIJ:  cpu time    0.0080: real time    0.0076
     EDDAV:  cpu time   11.0473: real time   11.0431
       DOS:  cpu time    0.0000: real time    0.0003
    CHARGE:  cpu time    0.4869: real time    0.4874
    MIXING:  cpu time    0.0450: real time    0.0447
    --------------------------------------------
      LOOP:  cpu time   13.3140: real time   13.3091

 eigenvalue-minimisations  :   120
 total energy-change (2. order) :-0.2144293E-04  (-0.2953189E-04)
 number of electron      56.0000041 magnetization 
 augmentation part       -3.5194896 magnetization 

 Broyden mixing:
  rms(total) = 0.16179E-02    rms(broyden)= 0.16174E-02
  rms(prec ) = 0.17316E-02
  weight for this iteration     100.00

 eigenvalues of (default mixing * dielectric matrix)
  average eigenvalue GAMMA=   1.0611
  1.0611

 Free energy of the ion-electron system (eV)
  ---------------------------------------------------
  alpha Z        PSCENC =         1.96423985
  Ewald energy   TEWEN  =      2639.74019249
  -Hartree energ DENC   =     -3573.79446212
  -exchange      EXHF   =         0.00000000
  -V(xc)+E(xc)   XCENC  =       -42.13581212
  PAW double counting   =      4183.65761268    -4022.04253019
  entropy T*S    EENTRO =        -0.00000000
  eigenvalues    EBANDS =      -527.90161223
  atomic energy  EATOM  =      1238.03527989
  Solvation  Ediel_sol  =         0.00000000
  ---------------------------------------------------
  free energy    TOTEN  =      -102.47709176 eV

  energy without entropy =     -102.47709176  energy(sigma->0) =     -102.47709176


--------------------------------------------------------------------------------------------------------




--------------------------------------- Iteration     18(   3)  ---------------------------------------


    POTLOK:  cpu time    1.7287: real time    1.7281
    SETDIJ:  cpu time    0.0080: real time    0.0075
     EDDAV:  cpu time   11.0513: real time   11.0486
       DOS:  cpu time    0.0010: real time    0.0003
    CHARGE:  cpu time    0.4869: real time    0.4857
    MIXING:  cpu time    0.0460: real time    0.0463
    --------------------------------------------
      LOOP:  cpu time   13.3220: real time   13.3167

 eigenvalue-minimisations  :   120
 total energy-change (2. order) : 0.2488296E-05  (-0.1120914E-05)
 number of electron      56.0000041 magnetization 
 augmentation part       -3.5195098 magnetization 

 Broyden mixing:
  rms(total) = 0.90222E-03    rms(broyden)= 0.90219E-03
  rms(prec ) = 0.96173E-03
  weight for this iteration     100.00

 eigenvalues of (default mixing * dielectric matrix)
  average eigenvalue GAMMA=   1.5772
  1.0507  2.1037

 Free energy of the ion-electron system (eV)
  ---------------------------------------------------
  alpha Z        PSCENC =         1.96423985
  Ewald energy   TEWEN  =      2639.74019249
  -Hartree energ DENC   =     -3573.79216587
  -exchange      EXHF   =         0.00000000
  -V(xc)+E(xc)   XCENC  =       -42.13554121
  PAW double counting   =      4183.57126511    -4021.95597905
  entropy T*S    EENTRO =        -0.00000000
  eigenvalues    EBANDS =      -527.90438048
  atomic energy  EATOM  =      1238.03527989
  Solvation  Ediel_sol  =         0.00000000
  ---------------------------------------------------
  free energy    TOTEN  =      -102.47708927 eV

  energy without entropy =     -102.47708927  energy(sigma->0) =     -102.47708927


--------------------------------------------------------------------------------------------------------




--------------------------------------- Iteration     18(   4)  ---------------------------------------


    POTLOK:  cpu time    1.7297: real time    1.7310
    SETDIJ:  cpu time    0.0080: real time    0.0079
     EDDAV:  cpu time    9.8945: real time    9.8909
       DOS:  cpu time    0.0000: real time    0.0003
    --------------------------------------------
      LOOP:  cpu time   11.6322: real time   11.6300

 eigenvalue-minimisations  :   104
 total energy-change (2. order) : 0.6415867E-06  (-0.3910648E-06)
 number of electron      56.0000041 magnetization 
 augmentation part       -3.5195098 magnetization 

 Free energy of the ion-electron system (eV)
  ---------------------------------------------------
  alpha Z        PSCENC =         1.96423985
  Ewald energy   TEWEN  =      2639.74019249
  -Hartree energ DENC   =     -3573.79127905
  -exchange      EXHF   =         0.00000000
  -V(xc)+E(xc)   XCENC  =       -42.13524825
  PAW double counting   =      4183.48192062    -4021.86646898
  entropy T*S    EENTRO =        -0.00000000
  eigenvalues    EBANDS =      -527.90572520
  atomic energy  EATOM  =      1238.03527989
  Solvation  Ediel_sol  =         0.00000000
  ---------------------------------------------------
  free energy    TOTEN  =      -102.47708863 eV

  energy without entropy =     -102.47708863  energy(sigma->0) =     -102.47708863


--------------------------------------------------------------------------------------------------------




 average (electrostatic) potential at core
  the test charge radii are     0.9892  1.1631  0.5201
  (the norm of the test charge is              1.0000)
       1 -93.2465       2 -93.2737       3 -93.3391       4 -93.3391       5 -93.4044
       6 -93.4135       7 -40.3908       8 -40.3906       9 -40.4297      10 -40.4297
      11 -40.9752      12 -40.9735      13 -41.0072      14 -40.8470      15 -40.8475
      16 -40.8424      17 -40.8427      18 -40.8752      19 -41.0069      20 -40.9735
      21 -40.9751      22 -40.8983      23 -40.8347      24 -40.8351      25 -40.8442
      26 -40.8426
 
 
 
 E-fermi :  -5.3680     XC(G=0):  -0.6033     alpha+bet : -0.3388


 k-point     1 :       0.0000    0.0000    0.0000
  band No.  band energies     occupation 
      1     -15.1397      2.00000
      2     -14.2845      2.00000
      3     -14.0244      2.00000
      4     -13.9467      2.00000
      5     -13.0103      2.00000
      6     -12.8049      2.00000
      7     -11.7880      2.00000
      8     -11.5483      2.00000
      9     -11.4630      2.00000
     10     -10.5542      2.00000
     11      -9.0129      2.00000
     12      -8.6952      2.00000
     13      -8.6727      2.00000
     14      -8.5766      2.00000
     15      -8.2682      2.00000
     16      -8.2338      2.00000
     17      -8.0804      2.00000
     18      -7.9690      2.00000
     19      -7.8843      2.00000
     20      -7.8183      2.00000
     21      -6.8513      2.00000
     22      -6.8096      2.00000
     23      -6.5591      2.00000
     24      -6.4875      2.00000
     25      -6.3935      2.00000
     26      -6.3921      2.00000
     27      -6.3556      2.00000
     28      -6.3290      2.00000
     29      -1.6581      0.00000
     30      -1.4226      0.00000
     31      -1.3801      0.00000
     32      -1.3455      0.00000
     33      -1.1821      0.00000
     34      -1.1345      0.00000
     35      -1.0219      0.00000
     36      -0.8939      0.00000
     37      -0.8429      0.00000
     38      -0.3959      0.00000
     39      -0.3605      0.00000
     40      -0.3119      0.00000
     41      -0.2124      0.00000
     42      -0.1533      0.00000


--------------------------------------------------------------------------------------------------------


 soft charge-density along one line, spin component           1
         0         1         2         3         4         5         6         7         8         9
 total charge-density along one line
 
 pseudopotential strength for first ion, spin component:           1
 19.607  27.362  -0.001   0.002   0.000  -0.001   0.004   0.000
 27.362  38.189  -0.001   0.003   0.000  -0.001   0.006   0.000
 -0.001  -0.001   4.361  -0.000  -0.000   8.135  -0.000  -0.000
  0.002   0.003  -0.000   4.362   0.000  -0.000   8.136   0.000
  0.000   0.000  -0.000   0.000   4.361  -0.000   0.000   8.135
 -0.001  -0.001   8.135  -0.000  -0.000  15.184  -0.000  -0.000
  0.004   0.006  -0.000   8.136   0.000  -0.000  15.186   0.000
  0.000   0.000  -0.000   0.000   8.135  -0.000   0.000  15.185
 total augmentation occupancy for first ion, spin component:           1
  6.082  -2.323   0.090  -0.428  -0.057  -0.028   0.134   0.017
 -2.323   0.944  -0.052   0.249   0.035   0.013  -0.062  -0.008
  0.090  -0.052   3.071  -0.107  -0.019  -0.685   0.038   0.007
 -0.428   0.249  -0.107   3.563   0.090   0.038  -0.862  -0.032
 -0.057   0.035  -0.019   0.090   3.055   0.007  -0.032  -0.680
 -0.028   0.013  -0.685   0.038   0.007   0.159  -0.011  -0.002
  0.134  -0.062   0.038  -0.862  -0.032  -0.011   0.211   0.009
  0.017  -0.008   0.007  -0.032  -0.680  -0.002   0.009   0.158


------------------------ aborting loop because EDIFF is reached ----------------------------------------


    CHARGE:  cpu time    0.4849: real time    0.4858
    FORLOC:  cpu time    0.1850: real time    0.1849
    FORNL :  cpu time    1.1058: real time    1.1046
    STRESS:  cpu time    8.1878: real time    8.1855
    FORCOR:  cpu time    2.0037: real time    2.0031
    FORHAR:  cpu time    0.5849: real time    0.5847
    MIXING:  cpu time    0.0480: real time    0.0487
    OFIELD:  cpu time    0.0000: real time    0.0000

  FORCE on cell =-STRESS in cart. coord.  units (eV):
  Direction    XX          YY          ZZ          XY          YZ          ZX
  --------------------------------------------------------------------------------------
  Alpha Z     1.96424     1.96424     1.96424
  Ewald     885.08938   875.05772   879.59140    -0.03874    -0.81074     0.46093
  Hartree  1197.37621  1185.63173  1190.78992     0.33709    -1.02734    -0.71597
  E(xc)    -177.88172  -178.09929  -178.05378     0.03299    -0.01644    -0.09469
  Local   -2586.92359 -2564.66891 -2574.60095    -0.35306     1.90082     0.37828
  n-local   273.25291   274.05016   273.81063    -0.09854     0.07018     0.24289
  augment   -27.69933   -27.61033   -27.64136    -0.01369     0.00966     0.03840
  Kinetic   433.82323   432.66913   433.34569     0.12444    -0.16777    -0.24698
  Fock        0.00000     0.00000     0.00000     0.00000     0.00000     0.00000
  -------------------------------------------------------------------------------------
  Total      -0.99867    -1.00556    -0.79421    -0.00950    -0.04162     0.06286
  in kB      -0.20001    -0.20139    -0.15906    -0.00190    -0.00834     0.01259
  external pressure =       -0.19 kB  Pullay stress =        0.00 kB


 VOLUME and BASIS-vectors are now :
 -----------------------------------------------------------------------------
  energy-cutoff  :      400.00
  volume of cell :     8000.00
      direct lattice vectors                 reciprocal lattice vectors
    20.000000000  0.000000000  0.000000000     0.050000000  0.000000000  0.000000000
     0.000000000 20.000000000  0.000000000     0.000000000  0.050000000  0.000000000
     0.000000000  0.000000000 20.000000000     0.000000000  0.000000000  0.050000000

  length of vectors
    20.000000000 20.000000000 20.000000000     0.050000000  0.050000000  0.050000000


 FORCES acting on ions
    electron-ion (+dipol)            ewald-force                    non-local-force                 convergence-correction
 -----------------------------------------------------------------------------------------------
   0.122E+02 -.186E+02 0.884E+02   -.123E+02 0.188E+02 -.897E+02   0.899E-01 -.265E+00 0.124E+01   0.908E-03 0.400E-03 -.162E-02
   0.879E+02 -.513E+01 0.463E+02   -.895E+02 0.520E+01 -.471E+02   0.163E+01 -.740E-01 0.771E+00   0.109E-02 0.270E-03 -.954E-03
   -.377E+02 0.549E+02 0.735E+02   0.381E+02 -.556E+02 -.755E+02   -.451E+00 0.752E+00 0.203E+01   -.717E-03 0.109E-03 -.204E-02
   -.299E+02 -.839E+02 0.435E+02   0.302E+02 0.854E+02 -.450E+02   -.320E+00 -.156E+01 0.152E+01   -.747E-03 0.668E-03 -.192E-02
   0.804E+02 0.137E+02 -.420E+02   -.822E+02 -.137E+02 0.419E+02   0.175E+01 0.732E-01 0.109E+00   0.784E-03 0.375E-04 0.169E-04
   -.855E+02 0.513E+01 -.457E+02   0.877E+02 -.527E+01 0.469E+02   -.218E+01 0.144E+00 -.122E+01   -.243E-03 -.234E-03 0.105E-02
   -.511E+02 0.779E+02 -.104E+02   0.517E+02 -.782E+02 0.103E+02   -.581E+00 0.262E+00 0.165E+00   -.323E-03 -.547E-03 -.561E-03
   -.427E+02 -.716E+02 -.429E+02   0.433E+02 0.720E+02 0.429E+02   -.545E+00 -.368E+00 0.275E-01   -.387E-03 0.689E-03 -.285E-03
   0.276E+02 0.845E+02 -.461E+02   -.281E+02 -.852E+02 0.466E+02   0.538E+00 0.620E+00 -.479E+00   0.236E-03 0.208E-03 -.230E-04
   0.354E+02 -.546E+02 -.762E+02   -.360E+02 0.549E+02 0.769E+02   0.589E+00 -.305E+00 -.679E+00   0.263E-03 -.154E-03 -.913E-04
   0.198E+02 0.399E+02 0.563E+01   -.209E+02 -.418E+02 -.669E+01   0.114E+01 0.197E+01 0.106E+01   0.933E-04 0.197E-04 -.135E-03
   0.113E+01 0.217E+02 -.393E+02   -.823E+00 -.222E+02 0.417E+02   -.311E+00 0.547E+00 -.244E+01   0.106E-03 0.688E-04 -.500E-05
   -.256E+02 0.387E+02 -.424E+01   0.269E+02 -.408E+02 0.446E+01   -.134E+01 0.206E+01 -.218E+00   0.504E-04 -.238E-03 -.281E-04
   -.460E+02 -.382E+01 0.562E+01   0.486E+02 0.423E+01 -.683E+01   -.267E+01 -.413E+00 0.122E+01   0.109E-03 0.429E-05 0.107E-04
   -.202E+02 0.785E+01 -.413E+02   0.206E+02 -.845E+01 0.442E+02   -.395E+00 0.604E+00 -.289E+01   -.204E-04 -.829E-04 0.385E-03
   -.367E+02 0.514E+01 0.291E+02   0.393E+02 -.474E+01 -.305E+02   -.260E+01 -.399E+00 0.135E+01   -.364E-03 -.396E-04 -.322E-03
   0.897E+01 0.361E+02 0.289E+02   -.103E+02 -.383E+02 -.303E+02   0.136E+01 0.228E+01 0.132E+01   0.320E-04 0.116E-03 -.318E-03
   0.706E+01 -.100E+02 0.475E+02   -.750E+01 0.106E+02 -.504E+02   0.428E+00 -.585E+00 0.281E+01   0.310E-03 -.738E-06 0.835E-04
   -.214E+02 -.360E+02 -.205E+02   0.225E+02 0.380E+02 0.216E+02   -.111E+01 -.192E+01 -.108E+01   0.236E-04 0.228E-03 0.766E-04
   0.253E+01 -.327E+01 -.445E+02   -.223E+01 0.279E+01 0.470E+02   -.307E+00 0.479E+00 -.245E+01   0.110E-03 -.456E-04 -.260E-04
   0.241E+02 -.364E+02 -.110E+02   -.254E+02 0.385E+02 0.108E+02   0.136E+01 -.210E+01 0.180E+00   0.931E-04 0.471E-04 -.129E-03
   0.435E+02 0.693E+01 -.206E+02   -.461E+02 -.734E+01 0.218E+02   0.262E+01 0.410E+00 -.121E+01   0.137E-03 -.132E-04 0.964E-04
   0.321E+02 0.250E+02 0.241E+02   -.335E+02 -.272E+02 -.255E+02   0.140E+01 0.222E+01 0.135E+01   0.562E-04 -.228E-03 -.346E-03
   0.352E+02 -.291E+02 0.124E+02   -.368E+02 0.315E+02 -.127E+02   0.166E+01 -.241E+01 0.342E+00   0.249E-04 0.355E-03 -.221E-03
   0.135E+02 -.434E+02 0.117E+02   -.151E+02 0.459E+02 -.120E+02   0.162E+01 -.246E+01 0.293E+00   0.363E-04 0.244E-04 -.337E-03
   -.353E+02 -.206E+02 0.236E+02   0.379E+02 0.210E+02 -.250E+02   -.260E+01 -.476E+00 0.133E+01   -.376E-03 0.130E-03 -.284E-03
 -----------------------------------------------------------------------------------------------
   -.762E+00 0.921E+00 -.445E+01   -.426E-13 0.107E-13 -.391E-13   0.761E+00 -.922E+00 0.445E+01   0.129E-02 0.179E-02 -.793E-02
 
 
 POSITION                                       TOTAL-FORCE (eV/Angst)
 -----------------------------------------------------------------------------------
      9.51214     11.11898      7.72223        -0.012091     -0.000272     -0.001851
      7.41434     10.78012      8.74231         0.003230      0.001041     -0.004160
     10.82852      9.17869      7.90841         0.004585      0.003484      0.004293
     10.61793     12.93706      8.72415         0.005091     -0.004488      0.002481
      7.65271     10.29663     11.03044        -0.004164     -0.000932      0.003307
     12.30203     10.49718     11.30639        -0.000454      0.001129     -0.005007
     11.17970      8.66655     10.22900        -0.000686      0.011852      0.004952
     10.96604     12.47813     11.05628         0.000732     -0.012787     -0.000477
      8.98928      8.31631     11.28484         0.003616      0.004485      0.002847
      8.77596     12.12464     12.11170         0.004210     -0.004957      0.000966
      8.28373      7.09450     10.62312         0.004573      0.009063      0.001430
      9.18087      7.97885     12.79334        -0.002372      0.000570      0.000091
     12.02708      7.36197     10.36676         0.002039      0.000093     -0.000978
     13.65186     10.70674     10.68877        -0.013989     -0.002001      0.006308
     12.49964     10.19313     12.75892         0.004573     -0.001709      0.009634
     12.14705      9.38336      7.22582        -0.003504      0.003703      0.002001
     10.14063      8.02721      7.24148        -0.005025     -0.004426     -0.002655
      9.28983     11.42222      6.26784        -0.005370      0.003720     -0.018497
     11.67211     13.69136     11.74062         0.002183      0.000516     -0.001012
      8.96546     11.82647     13.62873        -0.001816     -0.000996     -0.000141
      7.92903     13.42786     11.99831         0.005495     -0.008450     -0.001978
      6.30317     10.08538     11.65526         0.003629      0.001124     -0.004871
      6.70628      9.64930      8.05770         0.006898     -0.000317      0.001828
      6.57367     12.00994      8.57004         0.006780      0.000251      0.002044
      9.79562     14.18045      8.57692        -0.005151      0.004899     -0.000649
     11.93470     13.17498      8.04897        -0.003012     -0.004595      0.000094
 -----------------------------------------------------------------------------------
    total drift:                                0.000841      0.001326      0.000083


--------------------------------------------------------------------------------------------------------



  FREE ENERGIE OF THE ION-ELECTRON SYSTEM (eV)
  ---------------------------------------------------
  free  energy   TOTEN  =      -102.47708863 eV

  energy  without entropy=     -102.47708863  energy(sigma->0) =     -102.47708863
 
 d Force = 0.1300948E-03[-0.280E-05, 0.263E-03]  d Energy = 0.1304884E-03-0.394E-06
 d Force = 0.2550897E+00[ 0.255E+00, 0.255E+00]  d Ewald  = 0.2550897E+00-0.662E-07


--------------------------------------------------------------------------------------------------------


    POTLOK:  cpu time    1.7387: real time    1.7376


--------------------------------------------------------------------------------------------------------


 Conjugate gradient step on ions:
 trial-energy change:   -0.000130  1 .order   -0.000130   -0.000263    0.000003
  (g-gl).g = 0.202E-03      g.g   = 0.205E-03  gl.gl    = 0.746E-03
 g(Force)  = 0.205E-03   g(Stress)= 0.000E+00 ortho     = 0.188E-05
 gamma     =   0.27076
 trial     =   1.27946
 opt step  =   1.26598  (harmonic =   1.26598) maximal distance =0.00184593
 next E    =  -102.477088   (d E  =  -0.00013)


--------------------------------------------------------------------------------------------------------


  
 reached required accuracy - stopping structural energy minimisation
 writing wavefunctions
     LOOP+:  cpu time   64.0023: real time   64.4356
    4ORBIT:  cpu time    0.0000: real time    0.0000

 total amount of memory used by VASP MPI-rank0   131440. kBytes
=======================================================================

   base      :      30000. kBytes
   nonl-proj :      17624. kBytes
   fftplans  :      26957. kBytes
   grid      :      48673. kBytes
   one-center:         40. kBytes
   wavefun   :       8146. kBytes
 
  
  
 General timing and accounting informations for this job:
 ========================================================
  
                  Total CPU time used (sec):     2416.277
                            User time (sec):     2385.271
                          System time (sec):       31.005
                         Elapsed time (sec):     2422.412
  
                   Maximum memory used (kb):      184636.
                   Average memory used (kb):           0.
  
                          Minor page faults:      5771943
                          Major page faults:            5
                 Voluntary context switches:         5641
