librdmacm: Fatal: no RDMA devices found
librdmacm: Fatal: no RDMA devices found
librdmacm: Fatal: no RDMA devices found
librdmacm: Fatal: no RDMA devices found
librdmacm: Fatal: no RDMA devices found
--------------------------------------------------------------------------
[[55853,1],2]: A high-performance Open MPI point-to-point messaging module
was unable to find any relevant network interfaces:

Module: OpenFabrics (openib)
  Host: compute-0-13

Another transport will be used instead, although this may result in
lower performance.
--------------------------------------------------------------------------
librdmacm: Fatal: no RDMA devices found
librdmacm: Fatal: no RDMA devices found
librdmacm: Fatal: no RDMA devices found
librdmacm: Fatal: no RDMA devices found
librdmacm: Fatal: no RDMA devices found
librdmacm: Fatal: no RDMA devices found
librdmacm: Fatal: no RDMA devices found
 running on   12 total cores
 distrk:  each k-point on   12 cores,    1 groups
 distr:  one band on    6 cores,    2 groups
 using from now: INCAR     
 vasp.5.4.4.18Apr17-6-g9f103f2a35 (build Nov 06 2017 19:16:10) complex          
  
 POSCAR found type information on POSCAR  Si Ge H 
 POSCAR found :  3 types and      26 ions
 scaLAPACK will be used

 ----------------------------------------------------------------------------- 
|                                                                             |
|  ADVICE TO THIS USER RUNNING 'VASP/VAMP'   (HEAR YOUR MASTER'S VOICE ...):  |
|                                                                             |
|      You have a (more or less) 'large supercell' and for larger cells       |
|      it might be more efficient to use real space projection opertators     |
|      So try LREAL= Auto  in the INCAR   file.                               |
|      Mind:          For very  accurate calculation you might also keep the  |
|      reciprocal projection scheme          (i.e. LREAL=.FALSE.)             |
|                                                                             |
 ----------------------------------------------------------------------------- 

 LDA part: xc-table for Pade appr. of Perdew
 POSCAR, INCAR and KPOINTS ok, starting setup
 FFT: planning ...
 WAVECAR not read
 entering main loop
       N       E                     dE             d eps       ncg     rms          rms(c)
[compute-0-13.local:09988] 11 more processes have sent help message help-mpi-btl-base.txt / btl:no-nics
[compute-0-13.local:09988] Set MCA parameter "orte_base_help_aggregate" to 0 to see all help / error messages
DAV:   1     0.204375100733E+03    0.20438E+03   -0.10479E+04   116   0.546E+02
DAV:   2    -0.275433088446E+02   -0.23192E+03   -0.21723E+03   144   0.103E+02
DAV:   3    -0.101792609306E+03   -0.74249E+02   -0.74083E+02   112   0.546E+01
DAV:   4    -0.105972983390E+03   -0.41804E+01   -0.41651E+01   104   0.181E+01
DAV:   5    -0.106050632453E+03   -0.77649E-01   -0.77591E-01   144   0.268E+00    0.149E+01
DAV:   6    -0.102833298713E+03    0.32173E+01   -0.16180E+00    96   0.459E+00    0.859E+00
DAV:   7    -0.101154199782E+03    0.16791E+01   -0.40795E+00   104   0.674E+00    0.122E+00
DAV:   8    -0.101100490558E+03    0.53709E-01   -0.28078E-01   112   0.223E+00    0.613E-01
DAV:   9    -0.101065334269E+03    0.35156E-01   -0.71029E-02   112   0.766E-01    0.334E-01
DAV:  10    -0.101065243570E+03    0.90699E-04   -0.29471E-03   112   0.215E-01    0.153E-01
DAV:  11    -0.101065039304E+03    0.20427E-03   -0.63469E-03   104   0.230E-01    0.806E-02
DAV:  12    -0.101069313988E+03   -0.42747E-02   -0.11455E-03   104   0.100E-01    0.591E-02
DAV:  13    -0.101073979488E+03   -0.46655E-02   -0.18122E-03   112   0.110E-01    0.345E-02
DAV:  14    -0.101078102007E+03   -0.41225E-02   -0.32763E-04   112   0.532E-02    0.157E-02
DAV:  15    -0.101082158054E+03   -0.40560E-02   -0.44048E-04   112   0.554E-02    0.141E-02
DAV:  16    -0.101083642498E+03   -0.14844E-02   -0.10030E-04   112   0.273E-02    0.627E-03
DAV:  17    -0.101084631155E+03   -0.98866E-03   -0.83838E-05   104   0.220E-02    0.406E-03
DAV:  18    -0.101084917566E+03   -0.28641E-03   -0.91458E-06   104   0.809E-03    0.189E-03
DAV:  19    -0.101085056959E+03   -0.13939E-03   -0.52956E-06   104   0.610E-03    0.177E-03
DAV:  20    -0.101085107945E+03   -0.50987E-04   -0.91963E-07    88   0.328E-03    0.506E-04
DAV:  21    -0.101085133296E+03   -0.25350E-04   -0.75793E-07    80   0.227E-03    0.423E-04
DAV:  22    -0.101085141394E+03   -0.80983E-05   -0.15558E-07    88   0.114E-03    0.171E-04
DAV:  23    -0.101085145570E+03   -0.41761E-05   -0.11895E-07    80   0.842E-04    0.127E-04
DAV:  24    -0.101085147822E+03   -0.22519E-05   -0.37032E-08    88   0.499E-04    0.426E-05
DAV:  25    -0.101085148531E+03   -0.70873E-06   -0.12640E-08    80   0.304E-04
   1 F= -.10108515E+03 E0= -.10108515E+03  d E =-.101085E+03
 curvature:   0.00 expect dE= 0.000E+00 dE for cont linesearch  0.000E+00
 trial: gam= 0.00000 g(F)=  0.457E+00 g(S)=  0.000E+00 ort = 0.000E+00 (trialstep = 0.100E+01)
 search vector abs. value=  0.457E+00
 bond charge predicted
       N       E                     dE             d eps       ncg     rms          rms(c)
DAV:   1    -0.101250444452E+03   -0.16530E+00   -0.79781E+00    84   0.117E+01    0.128E+00
DAV:   2    -0.101284359743E+03   -0.33915E-01   -0.41162E-01   120   0.257E+00    0.645E-01
DAV:   3    -0.101279218624E+03    0.51411E-02   -0.15481E-02   120   0.504E-01    0.331E-01
DAV:   4    -0.101278146899E+03    0.10717E-02   -0.77819E-03   112   0.316E-01    0.730E-02
DAV:   5    -0.101277969448E+03    0.17745E-03   -0.80867E-04   112   0.119E-01    0.462E-02
DAV:   6    -0.101278019449E+03   -0.50000E-04   -0.17560E-04   112   0.463E-02    0.257E-02
DAV:   7    -0.101278237033E+03   -0.21758E-03   -0.58226E-05   112   0.334E-02    0.835E-03
DAV:   8    -0.101278357241E+03   -0.12021E-03   -0.32002E-05   112   0.220E-02    0.937E-03
DAV:   9    -0.101278446220E+03   -0.88979E-04   -0.56848E-06   112   0.901E-03    0.715E-03
DAV:  10    -0.101278673236E+03   -0.22702E-03   -0.20122E-05   112   0.108E-02    0.385E-03
DAV:  11    -0.101278720861E+03   -0.47625E-04   -0.17951E-06    96   0.424E-03    0.259E-03
DAV:  12    -0.101278807607E+03   -0.86745E-04   -0.48555E-06   104   0.622E-03    0.185E-03
DAV:  13    -0.101278826310E+03   -0.18704E-04   -0.65502E-07    88   0.305E-03    0.672E-04
DAV:  14    -0.101278852350E+03   -0.26039E-04   -0.56805E-07    88   0.208E-03    0.652E-04
DAV:  15    -0.101278864856E+03   -0.12506E-04   -0.35359E-07    88   0.146E-03    0.566E-04
DAV:  16    -0.101278873345E+03   -0.84886E-05   -0.13841E-07    88   0.935E-04    0.165E-04
DAV:  17    -0.101278874987E+03   -0.16420E-05   -0.29491E-08    88   0.490E-04    0.317E-04
DAV:  18    -0.101278876631E+03   -0.16445E-05   -0.24315E-08    78   0.458E-04    0.569E-05
DAV:  19    -0.101278877121E+03   -0.49006E-06   -0.83080E-09    80   0.246E-04
   2 F= -.10127888E+03 E0= -.10127888E+03  d E =-.193729E+00
 trial-energy change:   -0.193729  1 .order   -0.184545   -0.457442    0.088353
 step:   0.8509(harm=  0.8381)  dis= 0.03060  next Energy=  -101.285432 (dE=-0.200E+00)
 bond charge predicted
       N       E                     dE             d eps       ncg     rms          rms(c)
DAV:   1    -0.101284796645E+03   -0.59200E-02   -0.17935E-01    84   0.176E+00    0.180E-01
DAV:   2    -0.101285517708E+03   -0.72106E-03   -0.92578E-03   112   0.385E-01    0.100E-01
DAV:   3    -0.101285386400E+03    0.13131E-03   -0.37270E-04   120   0.784E-02    0.505E-02
DAV:   4    -0.101285353708E+03    0.32692E-04   -0.17545E-04   112   0.478E-02    0.126E-02
DAV:   5    -0.101285350665E+03    0.30432E-05   -0.18242E-05   112   0.179E-02    0.703E-03
DAV:   6    -0.101285358518E+03   -0.78534E-05   -0.48629E-06   104   0.755E-03    0.355E-03
DAV:   7    -0.101285375598E+03   -0.17080E-04   -0.15367E-06    80   0.508E-03    0.122E-03
DAV:   8    -0.101285383031E+03   -0.74324E-05   -0.98286E-07    88   0.369E-03    0.142E-03
DAV:   9    -0.101285387997E+03   -0.49664E-05   -0.25769E-07    88   0.195E-03    0.978E-04
DAV:  10    -0.101285401254E+03   -0.13257E-04   -0.12472E-06    96   0.254E-03    0.746E-04
DAV:  11    -0.101285403208E+03   -0.19538E-05   -0.79088E-08    88   0.911E-04    0.438E-04
DAV:  12    -0.101285406868E+03   -0.36602E-05   -0.17327E-07    88   0.119E-03    0.218E-04
DAV:  13    -0.101285408122E+03   -0.12542E-05   -0.53458E-08    88   0.659E-04    0.147E-04
DAV:  14    -0.101285409140E+03   -0.10173E-05   -0.25845E-08    88   0.479E-04    0.574E-05
DAV:  15    -0.101285409643E+03   -0.50300E-06   -0.14798E-08    88   0.303E-04
   3 F= -.10128541E+03 E0= -.10128541E+03  d E =-.200261E+00
 curvature:  -0.42 expect dE=-0.176E-01 dE for cont linesearch -0.165E-07
 trial: gam= 0.09201 g(F)=  0.422E-01 g(S)=  0.000E+00 ort = 0.135E-03 (trialstep = 0.970E+00)
 search vector abs. value=  0.461E-01
 bond charge predicted
       N       E                     dE             d eps       ncg     rms          rms(c)
DAV:   1    -0.101308913536E+03   -0.23504E-01   -0.57690E-01    94   0.328E+00    0.295E-01
DAV:   2    -0.101311420352E+03   -0.25068E-02   -0.32271E-02   120   0.642E-01    0.135E-01
DAV:   3    -0.101311208713E+03    0.21164E-03   -0.14128E-03   120   0.147E-01    0.733E-02
DAV:   4    -0.101311186891E+03    0.21823E-04   -0.36789E-04   112   0.725E-02    0.250E-02
DAV:   5    -0.101311186498E+03    0.39226E-06   -0.38086E-05   120   0.252E-02    0.128E-02
DAV:   6    -0.101311192205E+03   -0.57066E-05   -0.57739E-06   112   0.104E-02    0.633E-03
DAV:   7    -0.101311207530E+03   -0.15325E-04   -0.42746E-06   104   0.807E-03    0.186E-03
DAV:   8    -0.101311215158E+03   -0.76278E-05   -0.81179E-07    88   0.400E-03    0.122E-03
DAV:   9    -0.101311224157E+03   -0.89990E-05   -0.44041E-07    88   0.201E-03    0.590E-04
DAV:  10    -0.101311235179E+03   -0.11022E-04   -0.71703E-07    88   0.222E-03    0.486E-04
DAV:  11    -0.101311240591E+03   -0.54126E-05   -0.28047E-07    88   0.134E-03    0.216E-04
DAV:  12    -0.101311244517E+03   -0.39256E-05   -0.18564E-07    88   0.101E-03    0.145E-04
DAV:  13    -0.101311245849E+03   -0.13317E-05   -0.36333E-08    88   0.514E-04    0.105E-04
DAV:  14    -0.101311247359E+03   -0.15099E-05   -0.60300E-08    88   0.557E-04    0.102E-04
DAV:  15    -0.101311247579E+03   -0.22012E-06   -0.58462E-09    88   0.224E-04
   4 F= -.10131125E+03 E0= -.10131125E+03  d E =-.258379E-01
 trial-energy change:   -0.025838  1 .order   -0.025796   -0.040977   -0.010615
 step:   1.3094(harm=  1.3094)  dis= 0.01827  next Energy=  -101.313061 (dE=-0.277E-01)
 bond charge predicted
       N       E                     dE             d eps       ncg     rms          rms(c)
DAV:   1    -0.101312798464E+03   -0.15511E-02   -0.70498E-02    94   0.115E+00    0.102E-01
DAV:   2    -0.101313107268E+03   -0.30880E-03   -0.39813E-03   120   0.225E-01    0.473E-02
DAV:   3    -0.101313081657E+03    0.25611E-04   -0.17444E-04   120   0.519E-02    0.257E-02
DAV:   4    -0.101313078506E+03    0.31516E-05   -0.45409E-05   112   0.254E-02    0.894E-03
DAV:   5    -0.101313077048E+03    0.14576E-05   -0.46406E-06   112   0.879E-03    0.448E-03
DAV:   6    -0.101313077379E+03   -0.33108E-06   -0.66008E-07    88   0.369E-03
   5 F= -.10131308E+03 E0= -.10131308E+03  d E =-.276677E-01
 curvature:  -0.71 expect dE=-0.991E-02 dE for cont linesearch -0.248E-06
 trial: gam= 0.33418 g(F)=  0.139E-01 g(S)=  0.000E+00 ort =-0.126E-03 (trialstep = 0.104E+01)
 search vector abs. value=  0.189E-01
 bond charge predicted
       N       E                     dE             d eps       ncg     rms          rms(c)
DAV:   1    -0.101323043919E+03   -0.99669E-02   -0.25784E-01    86   0.235E+00    0.161E-01
DAV:   2    -0.101323222172E+03   -0.17825E-03   -0.74315E-03   120   0.332E-01    0.883E-02
DAV:   3    -0.101323115484E+03    0.10669E-03   -0.50399E-04   120   0.835E-02    0.458E-02
DAV:   4    -0.101323087689E+03    0.27795E-04   -0.92662E-05   112   0.358E-02    0.129E-02
DAV:   5    -0.101323084275E+03    0.34146E-05   -0.11428E-05   112   0.136E-02    0.724E-03
DAV:   6    -0.101323091203E+03   -0.69281E-05   -0.26385E-06   104   0.653E-03    0.234E-03
DAV:   7    -0.101323102992E+03   -0.11789E-04   -0.10792E-06    88   0.371E-03    0.128E-03
DAV:   8    -0.101323118254E+03   -0.15262E-04   -0.73007E-07    88   0.235E-03    0.734E-04
DAV:   9    -0.101323132855E+03   -0.14601E-04   -0.76201E-07    88   0.201E-03    0.461E-04
DAV:  10    -0.101323145402E+03   -0.12548E-04   -0.72593E-07    88   0.184E-03    0.232E-04
DAV:  11    -0.101323151199E+03   -0.57963E-05   -0.23384E-07    88   0.110E-03    0.152E-04
DAV:  12    -0.101323153647E+03   -0.24487E-05   -0.56628E-08    88   0.584E-04    0.984E-05
DAV:  13    -0.101323155237E+03   -0.15898E-05   -0.45002E-08    88   0.463E-04    0.536E-05
DAV:  14    -0.101323155934E+03   -0.69654E-06   -0.10545E-08    88   0.267E-04
   6 F= -.10132316E+03 E0= -.10132316E+03  d E =-.100786E-01
 trial-energy change:   -0.010079  1 .order   -0.010043   -0.014350   -0.005737
 step:   1.7028(harm=  1.7295)  dis= 0.01406  next Energy=  -101.325002 (dE=-0.119E-01)
 bond charge predicted
       N       E                     dE             d eps       ncg     rms          rms(c)
DAV:   1    -0.101325002325E+03   -0.18471E-02   -0.10578E-01    86   0.150E+00    0.103E-01
DAV:   2    -0.101325081040E+03   -0.78715E-04   -0.30762E-03   120   0.214E-01    0.568E-02
DAV:   3    -0.101325038226E+03    0.42814E-04   -0.20575E-04   120   0.534E-02    0.295E-02
DAV:   4    -0.101325025405E+03    0.12821E-04   -0.38056E-05   112   0.229E-02    0.824E-03
DAV:   5    -0.101325022251E+03    0.31540E-05   -0.46474E-06   112   0.863E-03    0.461E-03
DAV:   6    -0.101325023385E+03   -0.11342E-05   -0.93874E-07    88   0.414E-03    0.149E-03
DAV:   7    -0.101325027591E+03   -0.42066E-05   -0.57680E-07    80   0.259E-03    0.858E-04
DAV:   8    -0.101325034451E+03   -0.68593E-05   -0.31666E-07    80   0.164E-03    0.421E-04
DAV:   9    -0.101325040038E+03   -0.55876E-05   -0.27521E-07    88   0.123E-03    0.321E-04
DAV:  10    -0.101325046102E+03   -0.60636E-05   -0.30731E-07    80   0.120E-03    0.158E-04
DAV:  11    -0.101325048265E+03   -0.21632E-05   -0.64018E-08    88   0.629E-04    0.868E-05
DAV:  12    -0.101325050228E+03   -0.19628E-05   -0.58541E-08    80   0.509E-04    0.569E-05
DAV:  13    -0.101325051044E+03   -0.81648E-06   -0.19340E-08    88   0.307E-04
   7 F= -.10132505E+03 E0= -.10132505E+03  d E =-.119737E-01
 curvature:  -1.18 expect dE=-0.105E-01 dE for cont linesearch -0.127E-05
 trial: gam= 0.62615 g(F)=  0.884E-02 g(S)=  0.000E+00 ort = 0.143E-03 (trialstep = 0.117E+01)
 search vector abs. value=  0.164E-01
 bond charge predicted
       N       E                     dE             d eps       ncg     rms          rms(c)
DAV:   1    -0.101330867513E+03   -0.58173E-02   -0.34944E-01    88   0.273E+00    0.193E-01
DAV:   2    -0.101331162273E+03   -0.29476E-03   -0.76466E-03   112   0.345E-01    0.980E-02
DAV:   3    -0.101331007019E+03    0.15525E-03   -0.52194E-04   120   0.912E-02    0.487E-02
DAV:   4    -0.101331001830E+03    0.51881E-05   -0.20708E-04   120   0.533E-02    0.127E-02
DAV:   5    -0.101331004452E+03   -0.26212E-05   -0.19910E-05   112   0.184E-02    0.785E-03
DAV:   6    -0.101331006566E+03   -0.21144E-05   -0.17982E-06   104   0.506E-03    0.396E-03
DAV:   7    -0.101331011045E+03   -0.44790E-05   -0.60600E-07    88   0.323E-03    0.866E-04
DAV:   8    -0.101331014525E+03   -0.34795E-05   -0.31105E-07    88   0.213E-03    0.808E-04
DAV:   9    -0.101331018324E+03   -0.37994E-05   -0.12527E-07    80   0.137E-03    0.347E-04
DAV:  10    -0.101331023131E+03   -0.48069E-05   -0.27152E-07    80   0.133E-03    0.251E-04
DAV:  11    -0.101331024159E+03   -0.10287E-05   -0.38466E-08    88   0.639E-04    0.151E-04
DAV:  12    -0.101331026013E+03   -0.18531E-05   -0.65845E-08    80   0.617E-04    0.913E-05
DAV:  13    -0.101331026817E+03   -0.80426E-06   -0.26123E-08    88   0.380E-04
   8 F= -.10133103E+03 E0= -.10133103E+03  d E =-.597577E-02
 trial-energy change:   -0.005976  1 .order   -0.005983   -0.010461   -0.001505
 step:   1.3677(harm=  1.3677)  dis= 0.01173  next Energy=  -101.331160 (dE=-0.611E-02)
 bond charge predicted
       N       E                     dE             d eps       ncg     rms          rms(c)
DAV:   1    -0.101331150610E+03   -0.12460E-03   -0.98700E-03    88   0.459E-01    0.324E-02
DAV:   2    -0.101331159069E+03   -0.84591E-05   -0.21541E-04   112   0.579E-02    0.164E-02
DAV:   3    -0.101331154870E+03    0.41990E-05   -0.14650E-05   120   0.153E-02    0.816E-03
DAV:   4    -0.101331154794E+03    0.76424E-07   -0.57916E-06   120   0.891E-03
   9 F= -.10133115E+03 E0= -.10133115E+03  d E =-.610375E-02
 curvature:  -1.26 expect dE=-0.385E-02 dE for cont linesearch -0.962E-09
 trial: gam= 0.36419 g(F)=  0.306E-02 g(S)=  0.000E+00 ort =-0.355E-05 (trialstep = 0.121E+01)
 search vector abs. value=  0.524E-02
 bond charge predicted
       N       E                     dE             d eps       ncg     rms          rms(c)
DAV:   1    -0.101333855622E+03   -0.27008E-02   -0.11530E-01    84   0.154E+00    0.101E-01
DAV:   2    -0.101333984778E+03   -0.12916E-03   -0.26445E-03   120   0.204E-01    0.563E-02
DAV:   3    -0.101333931291E+03    0.53486E-04   -0.14607E-04   128   0.496E-02    0.256E-02
DAV:   4    -0.101333925515E+03    0.57760E-05   -0.53976E-05   112   0.266E-02    0.735E-03
DAV:   5    -0.101333925495E+03    0.19804E-07   -0.36595E-06   112   0.899E-03
  10 F= -.10133393E+03 E0= -.10133393E+03  d E =-.277070E-02
 trial-energy change:   -0.002771  1 .order   -0.002792   -0.003698   -0.001887
 step:   2.7126(harm=  2.4713)  dis= 0.01377  next Energy=  -101.335055 (dE=-0.390E-02)
 bond charge predicted
       N       E                     dE             d eps       ncg     rms          rms(c)
DAV:   1    -0.101334729422E+03   -0.80391E-03   -0.17756E-01    84   0.191E+00    0.125E-01
DAV:   2    -0.101334933114E+03   -0.20369E-03   -0.41316E-03   120   0.255E-01    0.698E-02
DAV:   3    -0.101334848283E+03    0.84831E-04   -0.22321E-04   128   0.615E-02    0.321E-02
DAV:   4    -0.101334840514E+03    0.77686E-05   -0.83145E-05   120   0.332E-02    0.917E-03
DAV:   5    -0.101334843527E+03   -0.30132E-05   -0.59953E-06   112   0.116E-02    0.510E-03
DAV:   6    -0.101334850121E+03   -0.65935E-05   -0.22731E-06    96   0.677E-03    0.180E-03
DAV:   7    -0.101334857892E+03   -0.77714E-05   -0.80329E-07    88   0.409E-03    0.102E-03
DAV:   8    -0.101334867714E+03   -0.98219E-05   -0.49414E-07    80   0.279E-03    0.663E-04
DAV:   9    -0.101334874874E+03   -0.71600E-05   -0.40806E-07    88   0.212E-03    0.294E-04
DAV:  10    -0.101334881181E+03   -0.63066E-05   -0.35137E-07    80   0.162E-03    0.307E-04
DAV:  11    -0.101334883747E+03   -0.25658E-05   -0.11070E-07    88   0.101E-03    0.162E-04
DAV:  12    -0.101334885725E+03   -0.19786E-05   -0.70914E-08    88   0.705E-04    0.174E-04
DAV:  13    -0.101334886522E+03   -0.79647E-06   -0.26471E-08    88   0.425E-04
  11 F= -.10133489E+03 E0= -.10133489E+03  d E =-.373173E-02
 curvature:  -2.04 expect dE=-0.643E-02 dE for cont linesearch -0.326E-04
 trial: gam= 1.11609 g(F)=  0.315E-02 g(S)=  0.000E+00 ort =-0.289E-03 (trialstep = 0.876E+00)
 search vector abs. value=  0.903E-02
 bond charge predicted
       N       E                     dE             d eps       ncg     rms          rms(c)
DAV:   1    -0.101336322110E+03   -0.14364E-02   -0.10708E-01    84   0.143E+00    0.961E-02
DAV:   2    -0.101336576358E+03   -0.25425E-03   -0.35479E-03   112   0.238E-01    0.598E-02
DAV:   3    -0.101336532202E+03    0.44156E-04   -0.13280E-04   120   0.502E-02    0.292E-02
DAV:   4    -0.101336531490E+03    0.71199E-06   -0.61583E-05   112   0.297E-02    0.744E-03
DAV:   5    -0.101336532326E+03   -0.83578E-06   -0.77487E-06   112   0.115E-02
  12 F= -.10133653E+03 E0= -.10133653E+03  d E =-.164580E-02
 trial-energy change:   -0.001646  1 .order   -0.001659   -0.002479   -0.000840
 step:   1.3627(harm=  1.3250)  dis= 0.00769  next Energy=  -101.336763 (dE=-0.188E-02)
 bond charge predicted
       N       E                     dE             d eps       ncg     rms          rms(c)
DAV:   1    -0.101336680210E+03   -0.14872E-03   -0.33054E-02    84   0.794E-01    0.538E-02
DAV:   2    -0.101336757820E+03   -0.77610E-04   -0.11082E-03   112   0.133E-01    0.332E-02
DAV:   3    -0.101336743065E+03    0.14755E-04   -0.40365E-05   120   0.277E-02    0.163E-02
DAV:   4    -0.101336742826E+03    0.23915E-06   -0.18617E-05   112   0.164E-02    0.409E-03
DAV:   5    -0.101336744375E+03   -0.15496E-05   -0.22588E-06    88   0.642E-03    0.169E-03
DAV:   6    -0.101336745512E+03   -0.11365E-05   -0.53415E-07    88   0.282E-03    0.981E-04
DAV:   7    -0.101336747472E+03   -0.19605E-05   -0.14600E-07    88   0.159E-03    0.275E-04
DAV:   8    -0.101336748809E+03   -0.13368E-05   -0.98387E-08    88   0.111E-03    0.270E-04
DAV:   9    -0.101336749918E+03   -0.11092E-05   -0.33234E-08    88   0.668E-04    0.151E-04
DAV:  10    -0.101336751583E+03   -0.16647E-05   -0.67781E-08    80   0.648E-04    0.115E-04
DAV:  11    -0.101336752187E+03   -0.60443E-06   -0.18545E-08    88   0.381E-04
  13 F= -.10133675E+03 E0= -.10133675E+03  d E =-.186567E-02
 curvature:  -2.10 expect dE=-0.382E-02 dE for cont linesearch -0.857E-06
 trial: gam= 0.44030 g(F)=  0.182E-02 g(S)=  0.000E+00 ort =-0.607E-04 (trialstep = 0.973E+00)
 search vector abs. value=  0.352E-02
 bond charge predicted
       N       E                     dE             d eps       ncg     rms          rms(c)
DAV:   1    -0.101337841570E+03   -0.10900E-02   -0.48026E-02    84   0.963E-01    0.758E-02
DAV:   2    -0.101337938961E+03   -0.97391E-04   -0.16188E-03   120   0.155E-01    0.403E-02
DAV:   3    -0.101337915306E+03    0.23655E-04   -0.77879E-05   128   0.359E-02    0.204E-02
DAV:   4    -0.101337910912E+03    0.43944E-05   -0.24482E-05   112   0.191E-02    0.642E-03
DAV:   5    -0.101337910683E+03    0.22877E-06   -0.19865E-06    96   0.651E-03
  14 F= -.10133791E+03 E0= -.10133791E+03  d E =-.115850E-02
 trial-energy change:   -0.001158  1 .order   -0.001173   -0.001747   -0.000598
 step:   1.5489(harm=  1.4806)  dis= 0.00519  next Energy=  -101.338085 (dE=-0.133E-02)
 bond charge predicted
       N       E                     dE             d eps       ncg     rms          rms(c)
DAV:   1    -0.101338037317E+03   -0.12641E-03   -0.16837E-02    84   0.570E-01    0.450E-02
DAV:   2    -0.101338069947E+03   -0.32630E-04   -0.57888E-04   120   0.929E-02    0.238E-02
DAV:   3    -0.101338060093E+03    0.98534E-05   -0.27393E-05   128   0.213E-02    0.122E-02
DAV:   4    -0.101338058604E+03    0.14899E-05   -0.87145E-06   120   0.115E-02    0.382E-03
DAV:   5    -0.101338059769E+03   -0.11653E-05   -0.74949E-07    88   0.415E-03    0.189E-03
DAV:   6    -0.101338061638E+03   -0.18694E-05   -0.40873E-07    88   0.266E-03    0.770E-04
DAV:   7    -0.101338064234E+03   -0.25953E-05   -0.19728E-07    80   0.173E-03    0.388E-04
DAV:   8    -0.101338065606E+03   -0.13720E-05   -0.58163E-08    88   0.902E-04    0.292E-04
DAV:   9    -0.101338068213E+03   -0.26075E-05   -0.12904E-07    80   0.936E-04    0.152E-04
DAV:  10    -0.101338068893E+03   -0.67966E-06   -0.28752E-08    88   0.502E-04
  15 F= -.10133807E+03 E0= -.10133807E+03  d E =-.131671E-02
 curvature:  -1.42 expect dE=-0.610E-03 dE for cont linesearch -0.221E-05
 trial: gam= 0.29425 g(F)=  0.428E-03 g(S)=  0.000E+00 ort =-0.739E-04 (trialstep = 0.109E+01)
 search vector abs. value=  0.689E-03
 bond charge predicted
       N       E                     dE             d eps       ncg     rms          rms(c)
DAV:   1    -0.101338222454E+03   -0.15424E-03   -0.11738E-02    84   0.470E-01    0.398E-02
DAV:   2    -0.101338263743E+03   -0.41289E-04   -0.54994E-04   120   0.924E-02    0.228E-02
DAV:   3    -0.101338257973E+03    0.57697E-05   -0.20255E-05   120   0.192E-02    0.125E-02
DAV:   4    -0.101338256349E+03    0.16246E-05   -0.84295E-06   112   0.125E-02    0.268E-03
DAV:   5    -0.101338256153E+03    0.19600E-06   -0.16984E-06    96   0.588E-03
  16 F= -.10133826E+03 E0= -.10133826E+03  d E =-.187260E-03
 trial-energy change:   -0.000187  1 .order   -0.000190   -0.000442    0.000063
 step:   0.9524(harm=  0.9524)  dis= 0.00214  next Energy=  -101.338262 (dE=-0.194E-03)
 bond charge predicted
       N       E                     dE             d eps       ncg     rms          rms(c)
DAV:   1    -0.101338259464E+03   -0.31154E-05   -0.18117E-04    84   0.584E-02    0.470E-03
DAV:   2    -0.101338260378E+03   -0.91425E-06   -0.75647E-06   112   0.110E-02
  17 F= -.10133826E+03 E0= -.10133826E+03  d E =-.191486E-03
 curvature:  -0.81 expect dE=-0.124E-03 dE for cont linesearch -0.862E-11
 trial: gam= 0.30114 g(F)=  0.153E-03 g(S)=  0.000E+00 ort = 0.857E-07 (trialstep = 0.106E+01)
 search vector abs. value=  0.216E-03
 bond charge predicted
       N       E                     dE             d eps       ncg     rms          rms(c)
DAV:   1    -0.101338362655E+03   -0.10319E-03   -0.30786E-03    84   0.251E-01    0.197E-02
DAV:   2    -0.101338370065E+03   -0.74094E-05   -0.11544E-04   120   0.403E-02    0.997E-03
DAV:   3    -0.101338369245E+03    0.81970E-06   -0.53198E-06   128   0.870E-03
  18 F= -.10133837E+03 E0= -.10133837E+03  d E =-.108867E-03
 trial-energy change:   -0.000109  1 .order   -0.000109   -0.000162   -0.000056
 step:   1.6130(harm=  1.6130)  dis= 0.00151  next Energy=  -101.338384 (dE=-0.123E-03)
 reached required accuracy - stopping structural energy minimisation
 writing wavefunctions
librdmacm: Fatal: no RDMA devices found
librdmacm: Fatal: no RDMA devices found
librdmacm: Fatal: no RDMA devices found
librdmacm: Fatal: no RDMA devices found
--------------------------------------------------------------------------
[[54801,1],6]: A high-performance Open MPI point-to-point messaging module
was unable to find any relevant network interfaces:

Module: OpenFabrics (openib)
  Host: compute-0-13

Another transport will be used instead, although this may result in
lower performance.
--------------------------------------------------------------------------
librdmacm: Fatal: no RDMA devices found
librdmacm: Fatal: no RDMA devices found
librdmacm: Fatal: no RDMA devices found
librdmacm: Fatal: no RDMA devices found
librdmacm: Fatal: no RDMA devices found
librdmacm: Fatal: no RDMA devices found
librdmacm: Fatal: no RDMA devices found
librdmacm: Fatal: no RDMA devices found
 running on   12 total cores
 distrk:  each k-point on   12 cores,    1 groups
 distr:  one band on    1 cores,   12 groups
 using from now: INCAR     
 vasp.5.4.4.18Apr17-6-g9f103f2a35 (build Nov 06 2017 19:16:10) complex          
  
 POSCAR found type information on POSCAR  Si Ge H 
 POSCAR found :  3 types and      26 ions
 scaLAPACK will be used

 ----------------------------------------------------------------------------- 
|                                                                             |
|           W    W    AA    RRRRR   N    N  II  N    N   GGGG   !!!           |
|           W    W   A  A   R    R  NN   N  II  NN   N  G    G  !!!           |
|           W    W  A    A  R    R  N N  N  II  N N  N  G       !!!           |
|           W WW W  AAAAAA  RRRRR   N  N N  II  N  N N  G  GGG   !            |
|           WW  WW  A    A  R   R   N   NN  II  N   NN  G    G                |
|           W    W  A    A  R    R  N    N  II  N    N   GGGG   !!!           |
|                                                                             |
|      For optimal performance we recommend to set                            |
|        NCORE= 4 - approx SQRT( number of cores)                             |
|      NCORE specifies how many cores store one orbital (NPAR=cpu/NCORE).     |
|      This setting can  greatly improve the performance of VASP for DFT.     |
|      The default,   NCORE=1            might be grossly inefficient         |
|      on modern multi-core architectures or massively parallel machines.     |
|      Do your own testing !!!!                                               |
|      Unfortunately you need to use the default for GW and RPA calculations. |
|      (for HF NCORE is supported but not extensively tested yet)             |
|                                                                             |
 ----------------------------------------------------------------------------- 


 ----------------------------------------------------------------------------- 
|                                                                             |
|  ADVICE TO THIS USER RUNNING 'VASP/VAMP'   (HEAR YOUR MASTER'S VOICE ...):  |
|                                                                             |
|      You have a (more or less) 'large supercell' and for larger cells       |
|      it might be more efficient to use real space projection opertators     |
|      So try LREAL= Auto  in the INCAR   file.                               |
|      Mind:          For very  accurate calculation you might also keep the  |
|      reciprocal projection scheme          (i.e. LREAL=.FALSE.)             |
|                                                                             |
 ----------------------------------------------------------------------------- 

 LDA part: xc-table for Pade appr. of Perdew
 POSCAR, INCAR and KPOINTS ok, starting setup
 FFT: planning ...
 WAVECAR not read
[compute-0-13.local:11064] 11 more processes have sent help message help-mpi-btl-base.txt / btl:no-nics
[compute-0-13.local:11064] Set MCA parameter "orte_base_help_aggregate" to 0 to see all help / error messages
 entering main loop
       N       E                     dE             d eps       ncg     rms          rms(c)
DAV:   1     0.246129400329E+03    0.24613E+03   -0.10182E+04   120   0.484E+02
DAV:   2    -0.228781000278E+02   -0.26901E+03   -0.25442E+03   156   0.917E+01
DAV:   3    -0.102704064336E+03   -0.79826E+02   -0.79592E+02   120   0.555E+01
DAV:   4    -0.106624726691E+03   -0.39207E+01   -0.39056E+01   120   0.176E+01
DAV:   5    -0.106704366074E+03   -0.79639E-01   -0.79545E-01   156   0.279E+00    0.154E+01
DAV:   6    -0.103188920684E+03    0.35154E+01   -0.16334E+00   120   0.441E+00    0.889E+00
DAV:   7    -0.101411425880E+03    0.17775E+01   -0.43979E+00   120   0.643E+00    0.131E+00
DAV:   8    -0.101356279848E+03    0.55146E-01   -0.34905E-01   132   0.226E+00    0.712E-01
DAV:   9    -0.101319759308E+03    0.36521E-01   -0.66469E-02   144   0.698E-01    0.396E-01
DAV:  10    -0.101318779817E+03    0.97949E-03   -0.37448E-03   132   0.212E-01    0.155E-01
DAV:  11    -0.101317581992E+03    0.11978E-02   -0.65370E-03   120   0.222E-01    0.113E-01
DAV:  12    -0.101322994655E+03   -0.54127E-02   -0.14577E-03   132   0.107E-01    0.597E-02
DAV:  13    -0.101326950795E+03   -0.39561E-02   -0.20556E-03   132   0.117E-01    0.501E-02
DAV:  14    -0.101329694456E+03   -0.27437E-02   -0.19021E-04   144   0.472E-02    0.252E-02
DAV:  15    -0.101334911275E+03   -0.52168E-02   -0.62885E-04    96   0.643E-02    0.153E-02
DAV:  16    -0.101336547406E+03   -0.16361E-02   -0.12435E-04   132   0.347E-02    0.105E-02
DAV:  17    -0.101337675018E+03   -0.11276E-02   -0.94358E-05   108   0.222E-02    0.714E-03
DAV:  18    -0.101337965172E+03   -0.29015E-03   -0.69734E-06   132   0.660E-03    0.257E-03
DAV:  19    -0.101338263861E+03   -0.29869E-03   -0.14874E-05   108   0.864E-03    0.240E-03
DAV:  20    -0.101338313093E+03   -0.49231E-04   -0.87713E-07    96   0.302E-03    0.113E-03
DAV:  21    -0.101338353224E+03   -0.40132E-04   -0.12762E-06    96   0.274E-03    0.422E-04
DAV:  22    -0.101338360703E+03   -0.74783E-05   -0.12244E-07   108   0.109E-03    0.625E-04
DAV:  23    -0.101338365683E+03   -0.49801E-05   -0.10491E-07    84   0.805E-04    0.239E-04
DAV:  24    -0.101338368760E+03   -0.30768E-05   -0.51668E-08    96   0.633E-04    0.197E-04
DAV:  25    -0.101338370001E+03   -0.12415E-05   -0.10736E-08    84   0.382E-04    0.508E-05
DAV:  26    -0.101338370473E+03   -0.47156E-06    0.23228E-09   108   0.185E-04
   1 F= -.10133837E+03 E0= -.10133837E+03  d E =-.924114E-10
 Finite differences POTIM= 0.02000 DOF=  78
 bond charge predicted
       N       E                     dE             d eps       ncg     rms          rms(c)
DAV:   1    -0.101335101455E+03    0.32685E-02   -0.83702E-02    96   0.792E-01    0.116E-01
DAV:   2    -0.101335460548E+03   -0.35909E-03   -0.39012E-03   120   0.201E-01    0.543E-02
DAV:   3    -0.101335451164E+03    0.93840E-05   -0.13005E-04   120   0.417E-02    0.284E-02
DAV:   4    -0.101335454053E+03   -0.28890E-05   -0.30055E-05   108   0.207E-02    0.764E-03
DAV:   5    -0.101335453434E+03    0.61876E-06   -0.67311E-06   132   0.970E-03
   2 F= -.10133545E+03 E0= -.10133545E+03  d E =-.793610E-10
 Finite differences progress:
  Degree of freedom:   1/ 78
  Displacement:        1/  2
  Total:               1/156
 bond charge predicted
       N       E                     dE             d eps       ncg     rms          rms(c)
DAV:   1    -0.101333763016E+03    0.16910E-02   -0.33417E-01    96   0.161E+00    0.242E-01
DAV:   2    -0.101335180488E+03   -0.14175E-02   -0.15370E-02   120   0.394E-01    0.108E-01
DAV:   3    -0.101335150591E+03    0.29897E-04   -0.50889E-04   120   0.821E-02    0.578E-02
DAV:   4    -0.101335166100E+03   -0.15509E-04   -0.12181E-04   108   0.412E-02    0.155E-02
DAV:   5    -0.101335162405E+03    0.36953E-05   -0.27656E-05   120   0.194E-02    0.809E-03
DAV:   6    -0.101335162464E+03   -0.59664E-07   -0.45112E-06   144   0.697E-03
   3 F= -.10133516E+03 E0= -.10133516E+03  d E =-.833417E-11
 Finite differences progress:
  Degree of freedom:   1/ 78
  Displacement:        2/  2
  Total:               2/156
 bond charge predicted
       N       E                     dE             d eps       ncg     rms          rms(c)
DAV:   1    -0.101334712418E+03    0.44999E-03   -0.16829E-01    96   0.114E+00    0.155E-01
DAV:   2    -0.101335409213E+03   -0.69680E-03   -0.75155E-03   108   0.280E-01    0.747E-02
DAV:   3    -0.101335402013E+03    0.71997E-05   -0.24929E-04   120   0.580E-02    0.380E-02
DAV:   4    -0.101335414001E+03   -0.11987E-04   -0.55501E-05   108   0.278E-02    0.110E-02
DAV:   5    -0.101335413726E+03    0.27458E-06   -0.98897E-06   120   0.124E-02
   4 F= -.10133541E+03 E0= -.10133541E+03  d E =-.688837E-11
 Finite differences progress:
  Degree of freedom:   2/ 78
  Displacement:        1/  2
  Total:               3/156
 bond charge predicted
       N       E                     dE             d eps       ncg     rms          rms(c)
DAV:   1    -0.101333920497E+03    0.14935E-02   -0.33378E-01    96   0.162E+00    0.194E-01
DAV:   2    -0.101335388990E+03   -0.14685E-02   -0.15420E-02   108   0.404E-01    0.106E-01
DAV:   3    -0.101335377898E+03    0.11092E-04   -0.45916E-04   108   0.822E-02    0.527E-02
DAV:   4    -0.101335396078E+03   -0.18180E-04   -0.12272E-04   120   0.422E-02    0.149E-02
DAV:   5    -0.101335391470E+03    0.46074E-05   -0.21173E-05   120   0.183E-02    0.794E-03
DAV:   6    -0.101335391259E+03    0.21132E-06   -0.65398E-06   132   0.854E-03
   5 F= -.10133539E+03 E0= -.10133539E+03  d E =-.889033E-11
 Finite differences progress:
  Degree of freedom:   2/ 78
  Displacement:        2/  2
  Total:               4/156
 bond charge predicted
       N       E                     dE             d eps       ncg     rms          rms(c)
DAV:   1    -0.101333214895E+03    0.21766E-02   -0.16735E-01    96   0.116E+00    0.147E-01
DAV:   2    -0.101334125327E+03   -0.91043E-03   -0.95246E-03   120   0.317E-01    0.901E-02
DAV:   3    -0.101334097082E+03    0.28246E-04   -0.25621E-04   108   0.625E-02    0.471E-02
DAV:   4    -0.101334106093E+03   -0.90114E-05   -0.10416E-04   120   0.366E-02    0.114E-02
DAV:   5    -0.101334104835E+03    0.12576E-05   -0.18202E-05   108   0.158E-02    0.697E-03
DAV:   6    -0.101334106991E+03   -0.21551E-05   -0.40122E-06   132   0.632E-03    0.372E-03
DAV:   7    -0.101334112583E+03   -0.55919E-05   -0.62238E-07    84   0.279E-03    0.124E-03
DAV:   8    -0.101334117950E+03   -0.53677E-05   -0.34457E-07    96   0.180E-03    0.605E-04
DAV:   9    -0.101334125677E+03   -0.77263E-05   -0.51256E-07    96   0.179E-03    0.451E-04
DAV:  10    -0.101334131545E+03   -0.58686E-05   -0.39256E-07    96   0.143E-03    0.212E-04
DAV:  11    -0.101334133572E+03   -0.20263E-05   -0.85164E-08   108   0.752E-04    0.162E-04
DAV:  12    -0.101334135488E+03   -0.19163E-05   -0.58425E-08    84   0.544E-04    0.852E-05
DAV:  13    -0.101334136474E+03   -0.98576E-06   -0.24345E-08    96   0.346E-04
   6 F= -.10133414E+03 E0= -.10133414E+03  d E =-.929996E-11
 Finite differences progress:
  Degree of freedom:   3/ 78
  Displacement:        1/  2
  Total:               5/156
 bond charge predicted
       N       E                     dE             d eps       ncg     rms          rms(c)
DAV:   1    -0.101331724101E+03    0.24114E-02   -0.34157E-01    96   0.161E+00    0.250E-01
DAV:   2    -0.101333911940E+03   -0.21878E-02   -0.23732E-02    96   0.466E-01    0.166E-01
DAV:   3    -0.101333752782E+03    0.15916E-03   -0.66806E-04   132   0.101E-01    0.809E-02
DAV:   4    -0.101333757263E+03   -0.44807E-05   -0.41301E-04   108   0.670E-02    0.165E-02
DAV:   5    -0.101333746474E+03    0.10789E-04   -0.55255E-05   132   0.258E-02    0.111E-02
DAV:   6    -0.101333747512E+03   -0.10377E-05   -0.12727E-05   108   0.911E-03    0.652E-03
DAV:   7    -0.101333759993E+03   -0.12481E-04   -0.11526E-06   120   0.342E-03    0.276E-03
DAV:   8    -0.101333780543E+03   -0.20550E-04   -0.18861E-06   108   0.401E-03    0.127E-03
DAV:   9    -0.101333796435E+03   -0.15891E-04   -0.97785E-07   108   0.222E-03    0.144E-03
DAV:  10    -0.101333818980E+03   -0.22545E-04   -0.13639E-06   108   0.232E-03    0.538E-04
DAV:  11    -0.101333823249E+03   -0.42689E-05   -0.78012E-08   108   0.827E-04    0.340E-04
DAV:  12    -0.101333832476E+03   -0.92277E-05   -0.29829E-07    84   0.110E-03    0.263E-04
DAV:  13    -0.101333834579E+03   -0.21023E-05   -0.48435E-08   108   0.477E-04    0.208E-04
DAV:  14    -0.101333836686E+03   -0.21069E-05   -0.21495E-08    84   0.385E-04    0.796E-05
DAV:  15    -0.101333837578E+03   -0.89256E-06   -0.71963E-09    96   0.248E-04
   7 F= -.10133384E+03 E0= -.10133384E+03  d E =-.572638E-10
 Finite differences progress:
  Degree of freedom:   3/ 78
  Displacement:        2/  2
  Total:               6/156
 bond charge predicted
       N       E                     dE             d eps       ncg     rms          rms(c)
DAV:   1    -0.101333025864E+03    0.81082E-03   -0.19425E-01    96   0.128E+00    0.195E-01
DAV:   2    -0.101334359440E+03   -0.13336E-02   -0.13876E-02   108   0.393E-01    0.119E-01
DAV:   3    -0.101334288498E+03    0.70942E-04   -0.40232E-04   144   0.807E-02    0.653E-02
DAV:   4    -0.101334287868E+03    0.63038E-06   -0.18695E-04   108   0.493E-02    0.134E-02
DAV:   5    -0.101334283602E+03    0.42656E-05   -0.28943E-05   120   0.186E-02    0.840E-03
DAV:   6    -0.101334284529E+03   -0.92677E-06   -0.31664E-06   132   0.597E-03
   8 F= -.10133428E+03 E0= -.10133428E+03  d E =-.946810E-10
 Finite differences progress:
  Degree of freedom:   4/ 78
  Displacement:        1/  2
  Total:               7/156
 bond charge predicted
       N       E                     dE             d eps       ncg     rms          rms(c)
DAV:   1    -0.101332400419E+03    0.18832E-02   -0.33839E-01    96   0.169E+00    0.251E-01
DAV:   2    -0.101334384642E+03   -0.19842E-02   -0.20352E-02    96   0.461E-01    0.153E-01
DAV:   3    -0.101334325196E+03    0.59447E-04   -0.52403E-04   132   0.852E-02    0.842E-02
DAV:   4    -0.101334320253E+03    0.49428E-05   -0.22968E-04   108   0.550E-02    0.151E-02
DAV:   5    -0.101334311008E+03    0.92454E-05   -0.44421E-05   144   0.242E-02    0.110E-02
DAV:   6    -0.101334310412E+03    0.59578E-06   -0.85189E-06   120   0.956E-03
   9 F= -.10133431E+03 E0= -.10133431E+03  d E =-.647071E-11
 Finite differences progress:
  Degree of freedom:   4/ 78
  Displacement:        2/  2
  Total:               8/156
 bond charge predicted
       N       E                     dE             d eps       ncg     rms          rms(c)
DAV:   1    -0.101332325014E+03    0.19860E-02   -0.17204E-01    96   0.119E+00    0.184E-01
DAV:   2    -0.101333479609E+03   -0.11546E-02   -0.11548E-02   132   0.354E-01    0.115E-01
DAV:   3    -0.101333460520E+03    0.19089E-04   -0.27069E-04   108   0.656E-02    0.639E-02
DAV:   4    -0.101333481131E+03   -0.20611E-04   -0.16452E-04   120   0.471E-02    0.115E-02
DAV:   5    -0.101333477065E+03    0.40657E-05   -0.34913E-05   132   0.211E-02    0.863E-03
DAV:   6    -0.101333477381E+03   -0.31572E-06   -0.60898E-06   108   0.718E-03
  10 F= -.10133348E+03 E0= -.10133348E+03  d E =-.460017E-11
 Finite differences progress:
  Degree of freedom:   5/ 78
  Displacement:        1/  2
  Total:               9/156
 bond charge predicted
       N       E                     dE             d eps       ncg     rms          rms(c)
DAV:   1    -0.101331255348E+03    0.22217E-02   -0.35764E-01    96   0.171E+00    0.281E-01
DAV:   2    -0.101333553218E+03   -0.22979E-02   -0.23547E-02   132   0.521E-01    0.175E-01
DAV:   3    -0.101333449645E+03    0.10357E-03   -0.64350E-04   108   0.109E-01    0.814E-02
DAV:   4    -0.101333481067E+03   -0.31422E-04   -0.41738E-04   120   0.709E-02    0.171E-02
DAV:   5    -0.101333466219E+03    0.14848E-04   -0.46657E-05   132   0.250E-02    0.102E-02
DAV:   6    -0.101333468201E+03   -0.19824E-05   -0.14103E-05   108   0.102E-02    0.472E-03
DAV:   7    -0.101333481870E+03   -0.13668E-04   -0.12611E-06   120   0.370E-03    0.197E-03
DAV:   8    -0.101333501806E+03   -0.19936E-04   -0.27324E-06    96   0.421E-03    0.132E-03
DAV:   9    -0.101333515618E+03   -0.13812E-04   -0.11143E-06   108   0.260E-03    0.116E-03
DAV:  10    -0.101333530601E+03   -0.14983E-04   -0.11804E-06    96   0.240E-03    0.379E-04
DAV:  11    -0.101333534783E+03   -0.41817E-05   -0.12138E-07   108   0.975E-04    0.386E-04
DAV:  12    -0.101333540591E+03   -0.58084E-05   -0.21176E-07    84   0.102E-03    0.142E-04
DAV:  13    -0.101333542477E+03   -0.18864E-05   -0.59955E-08    96   0.543E-04    0.116E-04
DAV:  14    -0.101333544145E+03   -0.16676E-05   -0.18234E-08    96   0.384E-04    0.462E-05
DAV:  15    -0.101333544640E+03   -0.49541E-06   -0.22657E-09   108   0.207E-04
  11 F= -.10133354E+03 E0= -.10133354E+03  d E =-.441037E-11
 Finite differences progress:
  Degree of freedom:   5/ 78
  Displacement:        2/  2
  Total:              10/156
 bond charge predicted
       N       E                     dE             d eps       ncg     rms          rms(c)
DAV:   1    -0.101333838490E+03   -0.29435E-03   -0.17372E-01    96   0.120E+00    0.177E-01
DAV:   2    -0.101335070541E+03   -0.12321E-02   -0.12623E-02   108   0.372E-01    0.119E-01
DAV:   3    -0.101335010711E+03    0.59829E-04   -0.30780E-04   144   0.722E-02    0.602E-02
DAV:   4    -0.101335014168E+03   -0.34568E-05   -0.19305E-04   132   0.497E-02    0.116E-02
DAV:   5    -0.101335008527E+03    0.56414E-05   -0.34609E-05   132   0.211E-02    0.827E-03
DAV:   6    -0.101335010689E+03   -0.21623E-05   -0.67421E-06   132   0.719E-03    0.474E-03
DAV:   7    -0.101335020907E+03   -0.10218E-04   -0.88788E-07   120   0.319E-03    0.196E-03
DAV:   8    -0.101335036246E+03   -0.15339E-04   -0.19220E-06    96   0.405E-03    0.118E-03
DAV:   9    -0.101335047938E+03   -0.11691E-04   -0.10093E-06   120   0.261E-03    0.108E-03
DAV:  10    -0.101335058224E+03   -0.10286E-04   -0.68106E-07    84   0.195E-03    0.369E-04
DAV:  11    -0.101335061374E+03   -0.31504E-05   -0.16728E-07   108   0.971E-04    0.258E-04
DAV:  12    -0.101335065500E+03   -0.41258E-05   -0.14155E-07    84   0.831E-04    0.150E-04
DAV:  13    -0.101335067413E+03   -0.19131E-05   -0.81376E-08    96   0.561E-04    0.132E-04
DAV:  14    -0.101335068585E+03   -0.11722E-05   -0.16902E-08    96   0.325E-04    0.725E-05
DAV:  15    -0.101335069097E+03   -0.51203E-06   -0.24489E-09    96   0.215E-04
  12 F= -.10133507E+03 E0= -.10133507E+03  d E =-.446077E-11
 Finite differences progress:
  Degree of freedom:   6/ 78
  Displacement:        1/  2
  Total:              11/156
 bond charge predicted
       N       E                     dE             d eps       ncg     rms          rms(c)
DAV:   1    -0.101333374182E+03    0.16944E-02   -0.33013E-01    96   0.156E+00    0.221E-01
DAV:   2    -0.101335146746E+03   -0.17726E-02   -0.18182E-02   144   0.411E-01    0.128E-01
DAV:   3    -0.101335129614E+03    0.17132E-04   -0.51223E-04   144   0.815E-02    0.752E-02
DAV:   4    -0.101335137941E+03   -0.83275E-05   -0.14563E-04   132   0.495E-02    0.144E-02
DAV:   5    -0.101335132386E+03    0.55554E-05   -0.40831E-05   132   0.240E-02    0.939E-03
DAV:   6    -0.101335131845E+03    0.54043E-06   -0.56657E-06   132   0.820E-03
  13 F= -.10133513E+03 E0= -.10133513E+03  d E =-.566722E-11
 Finite differences progress:
  Degree of freedom:   6/ 78
  Displacement:        2/  2
  Total:              12/156
 bond charge predicted
       N       E                     dE             d eps       ncg     rms          rms(c)
DAV:   1    -0.101332705226E+03    0.24272E-02   -0.16587E-01    96   0.124E+00    0.159E-01
DAV:   2    -0.101334007638E+03   -0.13024E-02   -0.13300E-02   144   0.374E-01    0.107E-01
DAV:   3    -0.101333982590E+03    0.25048E-04   -0.32007E-04   120   0.697E-02    0.622E-02
DAV:   4    -0.101333997400E+03   -0.14811E-04   -0.13693E-04   120   0.472E-02    0.106E-02
DAV:   5    -0.101333997629E+03   -0.22837E-06   -0.39036E-05   144   0.224E-02    0.831E-03
DAV:   6    -0.101333998360E+03   -0.73116E-06   -0.44906E-06   132   0.722E-03
  14 F= -.10133400E+03 E0= -.10133400E+03  d E =-.687956E-11
 Finite differences progress:
  Degree of freedom:   7/ 78
  Displacement:        1/  2
  Total:              13/156
 bond charge predicted
       N       E                     dE             d eps       ncg     rms          rms(c)
DAV:   1    -0.101331526958E+03    0.24707E-02   -0.34421E-01    96   0.167E+00    0.221E-01
DAV:   2    -0.101334008671E+03   -0.24817E-02   -0.24869E-02   132   0.493E-01    0.165E-01
DAV:   3    -0.101333956221E+03    0.52450E-04   -0.49786E-04   108   0.851E-02    0.970E-02
DAV:   4    -0.101333930667E+03    0.25555E-04   -0.30342E-04   120   0.608E-02    0.148E-02
DAV:   5    -0.101333920958E+03    0.97086E-05   -0.57079E-05   144   0.258E-02    0.112E-02
DAV:   6    -0.101333920999E+03   -0.41535E-07   -0.12865E-05   120   0.112E-02    0.688E-03
DAV:   7    -0.101333941223E+03   -0.20223E-04   -0.50863E-06   108   0.722E-03    0.245E-03
DAV:   8    -0.101333966957E+03   -0.25734E-04   -0.23692E-06   132   0.473E-03    0.126E-03
DAV:   9    -0.101333989971E+03   -0.23014E-04   -0.23278E-06   108   0.348E-03    0.141E-03
DAV:  10    -0.101334006739E+03   -0.16768E-04   -0.11934E-06   108   0.217E-03    0.540E-04
DAV:  11    -0.101334013648E+03   -0.69092E-05   -0.33836E-07   108   0.118E-03    0.306E-04
DAV:  12    -0.101334019970E+03   -0.63221E-05   -0.35715E-07    84   0.113E-03    0.159E-04
DAV:  13    -0.101334021964E+03   -0.19937E-05   -0.84138E-08    96   0.604E-04    0.143E-04
DAV:  14    -0.101334023351E+03   -0.13873E-05   -0.20458E-08    84   0.381E-04    0.498E-05
DAV:  15    -0.101334023829E+03   -0.47744E-06   -0.38961E-09   108   0.213E-04
  15 F= -.10133402E+03 E0= -.10133402E+03  d E =-.907768E-10
 Finite differences progress:
  Degree of freedom:   7/ 78
  Displacement:        2/  2
  Total:              14/156
 bond charge predicted
       N       E                     dE             d eps       ncg     rms          rms(c)
DAV:   1    -0.101334299433E+03   -0.27608E-03   -0.16909E-01    96   0.117E+00    0.150E-01
DAV:   2    -0.101335362163E+03   -0.10627E-02   -0.10839E-02   108   0.335E-01    0.103E-01
DAV:   3    -0.101335335531E+03    0.26632E-04   -0.23806E-04   132   0.609E-02    0.558E-02
DAV:   4    -0.101335335264E+03    0.26712E-06   -0.12077E-04   120   0.423E-02    0.102E-02
DAV:   5    -0.101335330455E+03    0.48088E-05   -0.28446E-05   144   0.197E-02    0.734E-03
DAV:   6    -0.101335330303E+03    0.15183E-06   -0.51897E-06   108   0.683E-03
  16 F= -.10133533E+03 E0= -.10133533E+03  d E =-.788586E-11
 Finite differences progress:
  Degree of freedom:   8/ 78
  Displacement:        1/  2
  Total:              15/156
 bond charge predicted
       N       E                     dE             d eps       ncg     rms          rms(c)
DAV:   1    -0.101333710552E+03    0.16199E-02   -0.33984E-01    96   0.163E+00    0.190E-01
DAV:   2    -0.101335254277E+03   -0.15437E-02   -0.15435E-02   108   0.392E-01    0.113E-01
DAV:   3    -0.101335288844E+03   -0.34567E-04   -0.44732E-04   132   0.823E-02    0.556E-02
DAV:   4    -0.101335320830E+03   -0.31985E-04   -0.13253E-04   108   0.498E-02    0.124E-02
DAV:   5    -0.101335320882E+03   -0.52260E-07   -0.34466E-05   132   0.218E-02    0.919E-03
DAV:   6    -0.101335322332E+03   -0.14505E-05   -0.59599E-06   132   0.758E-03    0.522E-03
DAV:   7    -0.101335326145E+03   -0.38125E-05   -0.68441E-07    84   0.355E-03    0.209E-03
DAV:   8    -0.101335331506E+03   -0.53611E-05   -0.75835E-07   108   0.352E-03    0.990E-04
DAV:   9    -0.101335340330E+03   -0.88236E-05   -0.63041E-07    84   0.335E-03    0.522E-04
DAV:  10    -0.101335344670E+03   -0.43407E-05   -0.40752E-07    96   0.208E-03    0.485E-04
DAV:  11    -0.101335345921E+03   -0.12502E-05   -0.51067E-08   120   0.905E-04    0.422E-04
DAV:  12    -0.101335348853E+03   -0.29321E-05   -0.54409E-08    84   0.719E-04    0.181E-04
DAV:  13    -0.101335351691E+03   -0.28378E-05   -0.10326E-07    84   0.703E-04    0.230E-04
DAV:  14    -0.101335352666E+03   -0.97570E-06   -0.12206E-08   108   0.459E-04
  17 F= -.10133535E+03 E0= -.10133535E+03  d E =-.483315E-11
 Finite differences progress:
  Degree of freedom:   8/ 78
  Displacement:        2/  2
  Total:              16/156
 bond charge predicted
       N       E                     dE             d eps       ncg     rms          rms(c)
DAV:   1    -0.101332514418E+03    0.28373E-02   -0.17149E-01    96   0.118E+00    0.146E-01
DAV:   2    -0.101333494703E+03   -0.98028E-03   -0.99554E-03   108   0.327E-01    0.957E-02
DAV:   3    -0.101333480428E+03    0.14275E-04   -0.24625E-04   156   0.626E-02    0.491E-02
DAV:   4    -0.101333488129E+03   -0.77011E-05   -0.11030E-04   108   0.420E-02    0.101E-02
DAV:   5    -0.101333484990E+03    0.31387E-05   -0.29211E-05   132   0.197E-02    0.758E-03
DAV:   6    -0.101333484283E+03    0.70648E-06   -0.49724E-06   132   0.680E-03
  18 F= -.10133348E+03 E0= -.10133348E+03  d E =-.868174E-10
 Finite differences progress:
  Degree of freedom:   9/ 78
  Displacement:        1/  2
  Total:              17/156
 bond charge predicted
       N       E                     dE             d eps       ncg     rms          rms(c)
DAV:   1    -0.101331028921E+03    0.24561E-02   -0.35591E-01    96   0.168E+00    0.243E-01
DAV:   2    -0.101333838709E+03   -0.28098E-02   -0.28141E-02   132   0.535E-01    0.181E-01
DAV:   3    -0.101333734846E+03    0.10386E-03   -0.60617E-04   156   0.958E-02    0.103E-01
DAV:   4    -0.101333731691E+03    0.31548E-05   -0.41316E-04   108   0.724E-02    0.163E-02
DAV:   5    -0.101333722357E+03    0.93338E-05   -0.11056E-04   132   0.345E-02    0.120E-02
DAV:   6    -0.101333720406E+03    0.19507E-05   -0.15149E-05   132   0.105E-02    0.798E-03
DAV:   7    -0.101333738818E+03   -0.18412E-04   -0.41178E-06   132   0.597E-03    0.312E-03
DAV:   8    -0.101333764354E+03   -0.25536E-04   -0.29590E-06   108   0.462E-03    0.129E-03
DAV:   9    -0.101333786115E+03   -0.21760E-04   -0.22394E-06   120   0.328E-03    0.169E-03
DAV:  10    -0.101333802341E+03   -0.16226E-04   -0.12395E-06    96   0.248E-03    0.480E-04
DAV:  11    -0.101333808141E+03   -0.57999E-05   -0.27532E-07   108   0.121E-03    0.316E-04
DAV:  12    -0.101333813875E+03   -0.57346E-05   -0.30741E-07    84   0.108E-03    0.183E-04
DAV:  13    -0.101333815494E+03   -0.16190E-05   -0.55592E-08    96   0.498E-04    0.190E-04
DAV:  14    -0.101333817044E+03   -0.15501E-05   -0.29495E-08    84   0.399E-04    0.731E-05
DAV:  15    -0.101333817557E+03   -0.51316E-06   -0.48795E-09    96   0.223E-04
  19 F= -.10133382E+03 E0= -.10133382E+03  d E =-.752647E-11
 Finite differences progress:
  Degree of freedom:   9/ 78
  Displacement:        2/  2
  Total:              18/156
 bond charge predicted
       N       E                     dE             d eps       ncg     rms          rms(c)
DAV:   1    -0.101333790827E+03    0.26218E-04   -0.17286E-01    96   0.129E+00    0.156E-01
DAV:   2    -0.101335113643E+03   -0.13228E-02   -0.13569E-02   120   0.403E-01    0.111E-01
DAV:   3    -0.101335066319E+03    0.47324E-04   -0.29727E-04   156   0.695E-02    0.662E-02
DAV:   4    -0.101335052916E+03    0.13403E-04   -0.18419E-04   132   0.552E-02    0.109E-02
DAV:   5    -0.101335048969E+03    0.39476E-05   -0.63645E-05   120   0.283E-02    0.905E-03
DAV:   6    -0.101335046755E+03    0.22139E-05   -0.67208E-06   120   0.819E-03    0.614E-03
DAV:   7    -0.101335053285E+03   -0.65301E-05   -0.21967E-06   108   0.569E-03    0.248E-03
DAV:   8    -0.101335066857E+03   -0.13572E-04   -0.18806E-06   120   0.527E-03    0.134E-03
DAV:   9    -0.101335079834E+03   -0.12978E-04   -0.10342E-06    96   0.324E-03    0.147E-03
DAV:  10    -0.101335090149E+03   -0.10315E-04   -0.40320E-07    96   0.188E-03    0.516E-04
DAV:  11    -0.101335096919E+03   -0.67704E-05   -0.33521E-07    84   0.134E-03    0.269E-04
DAV:  12    -0.101335102380E+03   -0.54604E-05   -0.16970E-07    96   0.892E-04    0.153E-04
DAV:  13    -0.101335104534E+03   -0.21540E-05   -0.51305E-08    84   0.499E-04    0.137E-04
DAV:  14    -0.101335106033E+03   -0.14993E-05   -0.18967E-08    96   0.346E-04    0.100E-04
DAV:  15    -0.101335106759E+03   -0.72563E-06   -0.48130E-09    84   0.231E-04
  20 F= -.10133511E+03 E0= -.10133511E+03  d E =-.820495E-10
 Finite differences progress:
  Degree of freedom:  10/ 78
  Displacement:        1/  2
  Total:              19/156
 bond charge predicted
       N       E                     dE             d eps       ncg     rms          rms(c)
DAV:   1    -0.101333135962E+03    0.19701E-02   -0.33883E-01    96   0.175E+00    0.202E-01
DAV:   2    -0.101335018323E+03   -0.18824E-02   -0.19061E-02   132   0.462E-01    0.126E-01
DAV:   3    -0.101335004103E+03    0.14219E-04   -0.47783E-04   132   0.870E-02    0.658E-02
DAV:   4    -0.101335017327E+03   -0.13223E-04   -0.18028E-04   132   0.570E-02    0.135E-02
DAV:   5    -0.101335012413E+03    0.49135E-05   -0.49933E-05   132   0.264E-02    0.101E-02
DAV:   6    -0.101335012334E+03    0.79115E-07   -0.76307E-06   132   0.885E-03
  21 F= -.10133501E+03 E0= -.10133501E+03  d E =-.107014E-10
 Finite differences progress:
  Degree of freedom:  10/ 78
  Displacement:        2/  2
  Total:              20/156
 bond charge predicted
       N       E                     dE             d eps       ncg     rms          rms(c)
DAV:   1    -0.101333110416E+03    0.19020E-02   -0.17098E-01    96   0.129E+00    0.155E-01
DAV:   2    -0.101334277084E+03   -0.11667E-02   -0.11593E-02   132   0.381E-01    0.114E-01
DAV:   3    -0.101334261263E+03    0.15821E-04   -0.23562E-04   120   0.642E-02    0.638E-02
DAV:   4    -0.101334263286E+03   -0.20229E-05   -0.14305E-04   120   0.466E-02    0.103E-02
DAV:   5    -0.101334258785E+03    0.45009E-05   -0.29016E-05   144   0.204E-02    0.771E-03
DAV:   6    -0.101334259223E+03   -0.43755E-06   -0.54883E-06   108   0.769E-03
  22 F= -.10133426E+03 E0= -.10133426E+03  d E =-.537650E-11
 Finite differences progress:
  Degree of freedom:  11/ 78
  Displacement:        1/  2
  Total:              21/156
 bond charge predicted
       N       E                     dE             d eps       ncg     rms          rms(c)
DAV:   1    -0.101332106544E+03    0.21522E-02   -0.33885E-01    96   0.185E+00    0.221E-01
DAV:   2    -0.101334344995E+03   -0.22385E-02   -0.22563E-02   144   0.511E-01    0.155E-01
DAV:   3    -0.101334299482E+03    0.45513E-04   -0.45856E-04   108   0.848E-02    0.848E-02
DAV:   4    -0.101334298375E+03    0.11065E-05   -0.24283E-04   120   0.593E-02    0.142E-02
DAV:   5    -0.101334285233E+03    0.13143E-04   -0.50228E-05   144   0.265E-02    0.965E-03
DAV:   6    -0.101334281126E+03    0.41069E-05   -0.92594E-06   132   0.992E-03    0.631E-03
DAV:   7    -0.101334286843E+03   -0.57178E-05   -0.19824E-06   132   0.611E-03    0.245E-03
DAV:   8    -0.101334297207E+03   -0.10363E-04   -0.16853E-06   108   0.551E-03    0.136E-03
DAV:   9    -0.101334310809E+03   -0.13602E-04   -0.12895E-06   132   0.334E-03    0.137E-03
DAV:  10    -0.101334323216E+03   -0.12407E-04   -0.43762E-07    84   0.166E-03    0.497E-04
DAV:  11    -0.101334330180E+03   -0.69646E-05   -0.31019E-07    96   0.118E-03    0.334E-04
DAV:  12    -0.101334337828E+03   -0.76477E-05   -0.20000E-07    96   0.958E-04    0.192E-04
DAV:  13    -0.101334341313E+03   -0.34852E-05   -0.86639E-08    96   0.609E-04    0.192E-04
DAV:  14    -0.101334343276E+03   -0.19633E-05   -0.16048E-08    96   0.363E-04    0.104E-04
DAV:  15    -0.101334344589E+03   -0.13125E-05   -0.12209E-08    84   0.288E-04    0.552E-05
DAV:  16    -0.101334345214E+03   -0.62515E-06    0.46244E-10   108   0.178E-04
  23 F= -.10133435E+03 E0= -.10133435E+03  d E =-.905188E-10
 Finite differences progress:
  Degree of freedom:  11/ 78
  Displacement:        2/  2
  Total:              22/156
 bond charge predicted
       N       E                     dE             d eps       ncg     rms          rms(c)
DAV:   1    -0.101332144841E+03    0.21997E-02   -0.17527E-01    96   0.127E+00    0.169E-01
DAV:   2    -0.101333525866E+03   -0.13810E-02   -0.13986E-02   120   0.407E-01    0.126E-01
DAV:   3    -0.101333458237E+03    0.67629E-04   -0.27246E-04   144   0.699E-02    0.724E-02
DAV:   4    -0.101333452952E+03    0.52850E-05   -0.22568E-04   132   0.598E-02    0.125E-02
DAV:   5    -0.101333449585E+03    0.33675E-05   -0.65795E-05   132   0.295E-02    0.942E-03
DAV:   6    -0.101333449227E+03    0.35787E-06   -0.97807E-06   132   0.918E-03
  24 F= -.10133345E+03 E0= -.10133345E+03  d E =-.522072E-11
 Finite differences progress:
  Degree of freedom:  12/ 78
  Displacement:        1/  2
  Total:              23/156
 bond charge predicted
       N       E                     dE             d eps       ncg     rms          rms(c)
DAV:   1    -0.101331150901E+03    0.22987E-02   -0.35606E-01    96   0.182E+00    0.249E-01
DAV:   2    -0.101333752748E+03   -0.26018E-02   -0.26127E-02   144   0.588E-01    0.178E-01
DAV:   3    -0.101333658014E+03    0.94734E-04   -0.59435E-04   156   0.106E-01    0.973E-02
DAV:   4    -0.101333670313E+03   -0.12299E-04   -0.37821E-04   120   0.767E-02    0.165E-02
DAV:   5    -0.101333663224E+03    0.70895E-05   -0.85219E-05   132   0.343E-02    0.117E-02
DAV:   6    -0.101333667085E+03   -0.38610E-05   -0.13671E-05   132   0.107E-02    0.745E-03
DAV:   7    -0.101333688376E+03   -0.21291E-04   -0.23146E-06   120   0.515E-03    0.307E-03
DAV:   8    -0.101333714432E+03   -0.26056E-04   -0.34958E-06   120   0.543E-03    0.142E-03
DAV:   9    -0.101333734265E+03   -0.19833E-04   -0.24286E-06   132   0.384E-03    0.184E-03
DAV:  10    -0.101333750402E+03   -0.16137E-04   -0.13336E-06    96   0.295E-03    0.535E-04
DAV:  11    -0.101333755244E+03   -0.48416E-05   -0.25345E-07   108   0.134E-03    0.310E-04
DAV:  12    -0.101333761300E+03   -0.60559E-05   -0.32695E-07    84   0.115E-03    0.210E-04
DAV:  13    -0.101333762794E+03   -0.14940E-05   -0.60372E-08    96   0.504E-04    0.251E-04
DAV:  14    -0.101333764380E+03   -0.15857E-05   -0.28774E-08    84   0.419E-04    0.103E-04
DAV:  15    -0.101333764993E+03   -0.61344E-06   -0.10638E-08    96   0.294E-04
  25 F= -.10133376E+03 E0= -.10133376E+03  d E =-.542841E-11
 Finite differences progress:
  Degree of freedom:  12/ 78
  Displacement:        2/  2
  Total:              24/156
 bond charge predicted
       N       E                     dE             d eps       ncg     rms          rms(c)
DAV:   1    -0.101333563523E+03    0.20086E-03   -0.17065E-01    96   0.131E+00    0.159E-01
DAV:   2    -0.101334942912E+03   -0.13794E-02   -0.13903E-02   108   0.411E-01    0.114E-01
DAV:   3    -0.101334904359E+03    0.38553E-04   -0.27645E-04   156   0.687E-02    0.677E-02
DAV:   4    -0.101334898745E+03    0.56144E-05   -0.18281E-04   120   0.552E-02    0.113E-02
DAV:   5    -0.101334894984E+03    0.37607E-05   -0.56329E-05   132   0.276E-02    0.850E-03
DAV:   6    -0.101334893902E+03    0.10822E-05   -0.59963E-06   132   0.771E-03    0.579E-03
DAV:   7    -0.101334901468E+03   -0.75657E-05   -0.19991E-06   108   0.522E-03    0.219E-03
DAV:   8    -0.101334914826E+03   -0.13358E-04   -0.15404E-06   120   0.461E-03    0.126E-03
DAV:   9    -0.101334925677E+03   -0.10852E-04   -0.64594E-07   108   0.276E-03    0.118E-03
DAV:  10    -0.101334936738E+03   -0.11061E-04   -0.64205E-07    84   0.182E-03    0.447E-04
DAV:  11    -0.101334942624E+03   -0.58862E-05   -0.26666E-07    96   0.106E-03    0.235E-04
DAV:  12    -0.101334947305E+03   -0.46805E-05   -0.14213E-07    84   0.822E-04    0.105E-04
DAV:  13    -0.101334949271E+03   -0.19658E-05   -0.53184E-08    96   0.494E-04    0.953E-05
DAV:  14    -0.101334950552E+03   -0.12809E-05   -0.14511E-08    84   0.319E-04    0.761E-05
DAV:  15    -0.101334951024E+03   -0.47260E-06   -0.12400E-09   108   0.195E-04
  26 F= -.10133495E+03 E0= -.10133495E+03  d E =-.813889E-10
 Finite differences progress:
  Degree of freedom:  13/ 78
  Displacement:        1/  2
  Total:              25/156
 bond charge predicted
       N       E                     dE             d eps       ncg     rms          rms(c)
DAV:   1    -0.101332892329E+03    0.20582E-02   -0.33918E-01    96   0.177E+00    0.208E-01
DAV:   2    -0.101334872216E+03   -0.19799E-02   -0.20065E-02   108   0.478E-01    0.133E-01
DAV:   3    -0.101334843489E+03    0.28728E-04   -0.48183E-04   132   0.882E-02    0.694E-02
DAV:   4    -0.101334854686E+03   -0.11197E-04   -0.20488E-04   120   0.592E-02    0.141E-02
DAV:   5    -0.101334848195E+03    0.64905E-05   -0.53561E-05   132   0.274E-02    0.102E-02
DAV:   6    -0.101334848016E+03    0.17915E-06   -0.84230E-06   132   0.919E-03
  27 F= -.10133485E+03 E0= -.10133485E+03  d E =-.102603E-10
 Finite differences progress:
  Degree of freedom:  13/ 78
  Displacement:        2/  2
  Total:              26/156
 bond charge predicted
       N       E                     dE             d eps       ncg     rms          rms(c)
DAV:   1    -0.101333408282E+03    0.14399E-02   -0.16930E-01    96   0.121E+00    0.134E-01
DAV:   2    -0.101334181375E+03   -0.77309E-03   -0.77103E-03   132   0.289E-01    0.777E-02
DAV:   3    -0.101334206864E+03   -0.25489E-04   -0.22162E-04   120   0.574E-02    0.384E-02
DAV:   4    -0.101334229517E+03   -0.22653E-04   -0.54310E-05   108   0.323E-02    0.827E-03
DAV:   5    -0.101334233085E+03   -0.35675E-05   -0.14710E-05   132   0.141E-02    0.601E-03
DAV:   6    -0.101334236356E+03   -0.32706E-05   -0.24187E-06   120   0.495E-03    0.348E-03
DAV:   7    -0.101334241920E+03   -0.55644E-05   -0.32240E-07   108   0.228E-03    0.131E-03
DAV:   8    -0.101334248062E+03   -0.61422E-05   -0.45327E-07   108   0.236E-03    0.778E-04
DAV:   9    -0.101334256111E+03   -0.80488E-05   -0.42360E-07    84   0.227E-03    0.353E-04
DAV:  10    -0.101334259407E+03   -0.32965E-05   -0.19739E-07   108   0.135E-03    0.363E-04
DAV:  11    -0.101334260563E+03   -0.11556E-05   -0.17856E-08   120   0.586E-04    0.276E-04
DAV:  12    -0.101334263645E+03   -0.30815E-05   -0.65686E-08    84   0.664E-04    0.110E-04
DAV:  13    -0.101334264908E+03   -0.12632E-05   -0.25084E-08    96   0.381E-04    0.165E-04
DAV:  14    -0.101334265760E+03   -0.85214E-06   -0.29905E-09   108   0.272E-04
  28 F= -.10133427E+03 E0= -.10133427E+03  d E =-.425702E-11
 Finite differences progress:
  Degree of freedom:  14/ 78
  Displacement:        1/  2
  Total:              27/156
 bond charge predicted
       N       E                     dE             d eps       ncg     rms          rms(c)
DAV:   1    -0.101331872874E+03    0.23920E-02   -0.34405E-01    96   0.181E+00    0.220E-01
DAV:   2    -0.101334253423E+03   -0.23805E-02   -0.24053E-02   132   0.545E-01    0.161E-01
DAV:   3    -0.101334176104E+03    0.77319E-04   -0.48914E-04   144   0.911E-02    0.966E-02
DAV:   4    -0.101334162925E+03    0.13180E-04   -0.30428E-04   132   0.723E-02    0.146E-02
DAV:   5    -0.101334159974E+03    0.29506E-05   -0.87384E-05   132   0.350E-02    0.122E-02
DAV:   6    -0.101334163273E+03   -0.32989E-05   -0.12765E-05   132   0.121E-02    0.821E-03
DAV:   7    -0.101334183002E+03   -0.19729E-04   -0.44015E-06   132   0.749E-03    0.325E-03
DAV:   8    -0.101334209401E+03   -0.26399E-04   -0.24569E-06   132   0.513E-03    0.120E-03
DAV:   9    -0.101334233608E+03   -0.24207E-04   -0.24201E-06   108   0.396E-03    0.160E-03
DAV:  10    -0.101334252299E+03   -0.18691E-04   -0.16491E-06   108   0.298E-03    0.617E-04
DAV:  11    -0.101334260162E+03   -0.78634E-05   -0.41793E-07   108   0.153E-03    0.243E-04
DAV:  12    -0.101334264662E+03   -0.44994E-05   -0.20076E-07    84   0.941E-04    0.202E-04
DAV:  13    -0.101334267150E+03   -0.24883E-05   -0.81314E-08    96   0.616E-04    0.175E-04
DAV:  14    -0.101334268432E+03   -0.12818E-05   -0.22701E-08    84   0.384E-04    0.572E-05
DAV:  15    -0.101334268971E+03   -0.53896E-06   -0.41851E-09    96   0.221E-04
  29 F= -.10133427E+03 E0= -.10133427E+03  d E =-.440965E-11
 Finite differences progress:
  Degree of freedom:  14/ 78
  Displacement:        2/  2
  Total:              28/156
 bond charge predicted
       N       E                     dE             d eps       ncg     rms          rms(c)
DAV:   1    -0.101332672658E+03    0.15958E-02   -0.17038E-01    96   0.130E+00    0.153E-01
DAV:   2    -0.101333711943E+03   -0.10393E-02   -0.10746E-02   120   0.358E-01    0.107E-01
DAV:   3    -0.101333684655E+03    0.27287E-04   -0.23602E-04   132   0.601E-02    0.571E-02
DAV:   4    -0.101333672718E+03    0.11938E-04   -0.92594E-05   132   0.372E-02    0.957E-03
DAV:   5    -0.101333666385E+03    0.63328E-05   -0.17571E-05   132   0.163E-02    0.568E-03
DAV:   6    -0.101333667238E+03   -0.85323E-06   -0.43393E-06   132   0.706E-03
  30 F= -.10133367E+03 E0= -.10133367E+03  d E =-.488231E-11
 Finite differences progress:
  Degree of freedom:  15/ 78
  Displacement:        1/  2
  Total:              29/156
 bond charge predicted
       N       E                     dE             d eps       ncg     rms          rms(c)
DAV:   1    -0.101331651374E+03    0.20150E-02   -0.35510E-01    96   0.184E+00    0.237E-01
DAV:   2    -0.101333904500E+03   -0.22531E-02   -0.22638E-02   144   0.552E-01    0.167E-01
DAV:   3    -0.101333861184E+03    0.43316E-04   -0.53562E-04   144   0.990E-02    0.876E-02
DAV:   4    -0.101333850398E+03    0.10786E-04   -0.28799E-04   120   0.650E-02    0.156E-02
DAV:   5    -0.101333841186E+03    0.92124E-05   -0.52802E-05   132   0.274E-02    0.106E-02
DAV:   6    -0.101333846629E+03   -0.54432E-05   -0.14994E-05   120   0.117E-02    0.610E-03
DAV:   7    -0.101333869262E+03   -0.22633E-04   -0.25906E-06   120   0.589E-03    0.246E-03
DAV:   8    -0.101333896233E+03   -0.26971E-04   -0.27113E-06   120   0.493E-03    0.114E-03
DAV:   9    -0.101333921059E+03   -0.24826E-04   -0.30138E-06   132   0.424E-03    0.139E-03
DAV:  10    -0.101333939513E+03   -0.18454E-04   -0.16123E-06    96   0.309E-03    0.396E-04
DAV:  11    -0.101333945201E+03   -0.56881E-05   -0.27146E-07   108   0.129E-03    0.289E-04
DAV:  12    -0.101333950463E+03   -0.52622E-05   -0.26538E-07    84   0.104E-03    0.217E-04
DAV:  13    -0.101333952034E+03   -0.15708E-05   -0.48016E-08   108   0.489E-04    0.142E-04
DAV:  14    -0.101333953388E+03   -0.13536E-05   -0.24210E-08    84   0.404E-04    0.506E-05
DAV:  15    -0.101333953916E+03   -0.52784E-06   -0.40694E-09    96   0.232E-04
  31 F= -.10133395E+03 E0= -.10133395E+03  d E =-.536792E-11
 Finite differences progress:
  Degree of freedom:  15/ 78
  Displacement:        2/  2
  Total:              30/156
 bond charge predicted
       N       E                     dE             d eps       ncg     rms          rms(c)
DAV:   1    -0.101332860206E+03    0.10932E-02   -0.18618E-01    96   0.137E+00    0.165E-01
DAV:   2    -0.101334226918E+03   -0.13667E-02   -0.14994E-02   108   0.422E-01    0.110E-01
DAV:   3    -0.101334175823E+03    0.51095E-04   -0.26659E-04   156   0.644E-02    0.650E-02
DAV:   4    -0.101334152421E+03    0.23402E-04   -0.13892E-04   132   0.470E-02    0.102E-02
DAV:   5    -0.101334144850E+03    0.75712E-05   -0.35574E-05   132   0.222E-02    0.710E-03
DAV:   6    -0.101334142856E+03    0.19935E-05   -0.51763E-06   132   0.757E-03    0.473E-03
DAV:   7    -0.101334151300E+03   -0.84441E-05   -0.21005E-06    96   0.543E-03    0.176E-03
DAV:   8    -0.101334167403E+03   -0.16103E-04   -0.17498E-06   108   0.466E-03    0.148E-03
DAV:   9    -0.101334181546E+03   -0.14143E-04   -0.70654E-07    96   0.278E-03    0.999E-04
DAV:  10    -0.101334193775E+03   -0.12229E-04   -0.63909E-07    84   0.179E-03    0.335E-04
DAV:  11    -0.101334199957E+03   -0.61821E-05   -0.17703E-07    96   0.917E-04    0.246E-04
DAV:  12    -0.101334204888E+03   -0.49304E-05   -0.96608E-08    84   0.711E-04    0.113E-04
DAV:  13    -0.101334207324E+03   -0.24362E-05   -0.45573E-08    96   0.468E-04    0.908E-05
DAV:  14    -0.101334209119E+03   -0.17948E-05   -0.18834E-08    84   0.337E-04    0.562E-05
DAV:  15    -0.101334209647E+03   -0.52881E-06   -0.91164E-10   108   0.197E-04
  32 F= -.10133421E+03 E0= -.10133421E+03  d E =-.459887E-11
 Finite differences progress:
  Degree of freedom:  16/ 78
  Displacement:        1/  2
  Total:              31/156
 bond charge predicted
       N       E                     dE             d eps       ncg     rms          rms(c)
DAV:   1    -0.101332898496E+03    0.13106E-02   -0.41027E-01    96   0.185E+00    0.216E-01
DAV:   2    -0.101334369311E+03   -0.14708E-02   -0.18180E-02   108   0.437E-01    0.123E-01
DAV:   3    -0.101334263541E+03    0.10577E-03   -0.32453E-04   132   0.632E-02    0.640E-02
DAV:   4    -0.101334206196E+03    0.57346E-04   -0.12362E-04   108   0.430E-02    0.112E-02
DAV:   5    -0.101334202388E+03    0.38073E-05   -0.29425E-05   132   0.200E-02    0.728E-03
DAV:   6    -0.101334215173E+03   -0.12785E-04   -0.99313E-06   108   0.892E-03    0.427E-03
DAV:   7    -0.101334238434E+03   -0.23261E-04   -0.14950E-06   108   0.390E-03    0.220E-03
DAV:   8    -0.101334275849E+03   -0.37415E-04   -0.41974E-06   108   0.464E-03    0.127E-03
DAV:   9    -0.101334296331E+03   -0.20482E-04   -0.14672E-06   108   0.288E-03    0.880E-04
DAV:  10    -0.101334316432E+03   -0.20101E-04   -0.17253E-06    96   0.267E-03    0.366E-04
DAV:  11    -0.101334323117E+03   -0.66850E-05   -0.23265E-07    96   0.120E-03    0.339E-04
DAV:  12    -0.101334329847E+03   -0.67299E-05   -0.32952E-07    84   0.119E-03    0.167E-04
DAV:  13    -0.101334331358E+03   -0.15113E-05   -0.56095E-08    96   0.518E-04    0.145E-04
DAV:  14    -0.101334332708E+03   -0.13499E-05   -0.13786E-08    84   0.356E-04    0.497E-05
DAV:  15    -0.101334333353E+03   -0.64479E-06   -0.62617E-09    96   0.248E-04
  33 F= -.10133433E+03 E0= -.10133433E+03  d E =-.467163E-11
 Finite differences progress:
  Degree of freedom:  16/ 78
  Displacement:        2/  2
  Total:              32/156
 bond charge predicted
       N       E                     dE             d eps       ncg     rms          rms(c)
DAV:   1    -0.101334041409E+03    0.29130E-03   -0.20448E-01   108   0.127E+00    0.146E-01
DAV:   2    -0.101334851245E+03   -0.80984E-03   -0.99172E-03   108   0.322E-01    0.936E-02
DAV:   3    -0.101334786525E+03    0.64720E-04   -0.14682E-04   132   0.437E-02    0.502E-02
DAV:   4    -0.101334750745E+03    0.35780E-04   -0.77069E-05   108   0.325E-02    0.789E-03
DAV:   5    -0.101334745611E+03    0.51340E-05   -0.16962E-05   132   0.148E-02    0.544E-03
DAV:   6    -0.101334751073E+03   -0.54621E-05   -0.59858E-06   132   0.645E-03    0.291E-03
DAV:   7    -0.101334764211E+03   -0.13138E-04   -0.65592E-07    84   0.249E-03    0.150E-03
DAV:   8    -0.101334787302E+03   -0.23090E-04   -0.26146E-06    96   0.338E-03    0.979E-04
DAV:   9    -0.101334802066E+03   -0.14765E-04   -0.85314E-07    96   0.212E-03    0.586E-04
DAV:  10    -0.101334813892E+03   -0.11826E-04   -0.97993E-07    96   0.183E-03    0.286E-04
DAV:  11    -0.101334819681E+03   -0.57882E-05   -0.21075E-07    96   0.106E-03    0.258E-04
DAV:  12    -0.101334821840E+03   -0.21598E-05   -0.57605E-08    84   0.561E-04    0.152E-04
DAV:  13    -0.101334823466E+03   -0.16253E-05   -0.30401E-08    96   0.406E-04    0.577E-05
DAV:  14    -0.101334824372E+03   -0.90616E-06   -0.80706E-09    84   0.273E-04
  34 F= -.10133482E+03 E0= -.10133482E+03  d E =-.499806E-11
 Finite differences progress:
  Degree of freedom:  17/ 78
  Displacement:        1/  2
  Total:              33/156
 bond charge predicted
       N       E                     dE             d eps       ncg     rms          rms(c)
DAV:   1    -0.101333034924E+03    0.17885E-02   -0.40359E-01   108   0.188E+00    0.214E-01
DAV:   2    -0.101334659105E+03   -0.16242E-02   -0.19606E-02   108   0.447E-01    0.114E-01
DAV:   3    -0.101334577765E+03    0.81341E-04   -0.34409E-04   132   0.650E-02    0.605E-02
DAV:   4    -0.101334534796E+03    0.42969E-04   -0.11285E-04   120   0.419E-02    0.118E-02
DAV:   5    -0.101334524112E+03    0.10684E-04   -0.24319E-05   132   0.190E-02    0.776E-03
DAV:   6    -0.101334525585E+03   -0.14733E-05   -0.75446E-06   120   0.884E-03    0.422E-03
DAV:   7    -0.101334536653E+03   -0.11068E-04   -0.16248E-06    96   0.497E-03    0.200E-03
DAV:   8    -0.101334556636E+03   -0.19983E-04   -0.15263E-06    96   0.408E-03    0.120E-03
DAV:   9    -0.101334573999E+03   -0.17362E-04   -0.11165E-06   108   0.291E-03    0.923E-04
DAV:  10    -0.101334588392E+03   -0.14393E-04   -0.57513E-07    84   0.190E-03    0.359E-04
DAV:  11    -0.101334596581E+03   -0.81897E-05   -0.29217E-07    96   0.115E-03    0.313E-04
DAV:  12    -0.101334603784E+03   -0.72030E-05   -0.20585E-07    84   0.934E-04    0.157E-04
DAV:  13    -0.101334606177E+03   -0.23924E-05   -0.38817E-08   108   0.457E-04    0.942E-05
DAV:  14    -0.101334607793E+03   -0.16166E-05   -0.14018E-08    84   0.299E-04    0.503E-05
DAV:  15    -0.101334608542E+03   -0.74822E-06   -0.19101E-09   108   0.202E-04
  35 F= -.10133461E+03 E0= -.10133461E+03  d E =-.455529E-11
 Finite differences progress:
  Degree of freedom:  17/ 78
  Displacement:        2/  2
  Total:              34/156
 bond charge predicted
       N       E                     dE             d eps       ncg     rms          rms(c)
DAV:   1    -0.101334399288E+03    0.20851E-03   -0.20278E-01    96   0.133E+00    0.144E-01
DAV:   2    -0.101335171180E+03   -0.77189E-03   -0.96391E-03   108   0.316E-01    0.846E-02
DAV:   3    -0.101335114289E+03    0.56891E-04   -0.14627E-04   132   0.414E-02    0.446E-02
DAV:   4    -0.101335071104E+03    0.43185E-04   -0.50531E-05   120   0.257E-02    0.791E-03
DAV:   5    -0.101335067815E+03    0.32891E-05   -0.75964E-06   132   0.112E-02    0.453E-03
DAV:   6    -0.101335079554E+03   -0.11739E-04   -0.53831E-06   120   0.825E-03    0.228E-03
DAV:   7    -0.101335097579E+03   -0.18026E-04   -0.26741E-06   132   0.525E-03    0.165E-03
DAV:   8    -0.101335117333E+03   -0.19754E-04   -0.12655E-06    96   0.278E-03    0.818E-04
DAV:   9    -0.101335136040E+03   -0.18707E-04   -0.17462E-06    96   0.281E-03    0.610E-04
DAV:  10    -0.101335148986E+03   -0.12946E-04   -0.11723E-06   108   0.217E-03    0.238E-04
DAV:  11    -0.101335153239E+03   -0.42529E-05   -0.17596E-07    96   0.982E-04    0.203E-04
DAV:  12    -0.101335155778E+03   -0.25388E-05   -0.93027E-08    84   0.621E-04    0.107E-04
DAV:  13    -0.101335157161E+03   -0.13837E-05   -0.38967E-08    96   0.404E-04    0.521E-05
DAV:  14    -0.101335157817E+03   -0.65592E-06   -0.50928E-09    84   0.238E-04
  36 F= -.10133516E+03 E0= -.10133516E+03  d E =-.666781E-10
 Finite differences progress:
  Degree of freedom:  18/ 78
  Displacement:        1/  2
  Total:              35/156
 bond charge predicted
       N       E                     dE             d eps       ncg     rms          rms(c)
DAV:   1    -0.101333543983E+03    0.16132E-02   -0.40858E-01    96   0.186E+00    0.184E-01
DAV:   2    -0.101335094147E+03   -0.15502E-02   -0.18843E-02   108   0.425E-01    0.101E-01
DAV:   3    -0.101335039767E+03    0.54381E-04   -0.34306E-04   132   0.620E-02    0.528E-02
DAV:   4    -0.101334995355E+03    0.44412E-04   -0.76649E-05   132   0.364E-02    0.104E-02
DAV:   5    -0.101334984983E+03    0.10372E-04   -0.20646E-05   132   0.181E-02    0.689E-03
DAV:   6    -0.101334987523E+03   -0.25401E-05   -0.56991E-06   132   0.846E-03    0.411E-03
DAV:   7    -0.101334998876E+03   -0.11353E-04   -0.17138E-06   120   0.578E-03    0.179E-03
DAV:   8    -0.101335015985E+03   -0.17109E-04   -0.12679E-06    84   0.438E-03    0.126E-03
DAV:   9    -0.101335040424E+03   -0.24439E-04   -0.20480E-06    96   0.372E-03    0.709E-04
DAV:  10    -0.101335054673E+03   -0.14249E-04   -0.69825E-07    84   0.225E-03    0.507E-04
DAV:  11    -0.101335061894E+03   -0.72211E-05   -0.24657E-07    96   0.112E-03    0.455E-04
DAV:  12    -0.101335067633E+03   -0.57384E-05   -0.12559E-07    84   0.815E-04    0.159E-04
DAV:  13    -0.101335070242E+03   -0.26098E-05   -0.42749E-08    96   0.490E-04    0.103E-04
DAV:  14    -0.101335072080E+03   -0.18376E-05   -0.23082E-08    84   0.349E-04    0.618E-05
DAV:  15    -0.101335072700E+03   -0.62035E-06   -0.80647E-12    96   0.187E-04
  37 F= -.10133507E+03 E0= -.10133507E+03  d E =-.114630E-10
 Finite differences progress:
  Degree of freedom:  18/ 78
  Displacement:        2/  2
  Total:              36/156
 bond charge predicted
       N       E                     dE             d eps       ncg     rms          rms(c)
DAV:   1    -0.101332930178E+03    0.21419E-02   -0.20040E-01    96   0.131E+00    0.147E-01
DAV:   2    -0.101334126309E+03   -0.11961E-02   -0.14442E-02   108   0.351E-01    0.848E-02
DAV:   3    -0.101334092915E+03    0.33394E-04   -0.24469E-04   144   0.485E-02    0.497E-02
DAV:   4    -0.101334058811E+03    0.34104E-04   -0.57202E-05   108   0.299E-02    0.904E-03
DAV:   5    -0.101334051576E+03    0.72344E-05   -0.14009E-05   132   0.143E-02    0.517E-03
DAV:   6    -0.101334055901E+03   -0.43248E-05   -0.41662E-06   120   0.738E-03    0.276E-03
DAV:   7    -0.101334069032E+03   -0.13131E-04   -0.21279E-06    96   0.525E-03    0.139E-03
DAV:   8    -0.101334088443E+03   -0.19411E-04   -0.13014E-06    96   0.360E-03    0.811E-04
DAV:   9    -0.101334103987E+03   -0.15544E-04   -0.10257E-06   108   0.261E-03    0.567E-04
DAV:  10    -0.101334117504E+03   -0.13516E-04   -0.90741E-07    96   0.203E-03    0.304E-04
DAV:  11    -0.101334121599E+03   -0.40954E-05   -0.11374E-07    96   0.857E-04    0.255E-04
DAV:  12    -0.101334125537E+03   -0.39383E-05   -0.13235E-07    84   0.797E-04    0.952E-05
[...]
  Degree of freedom:  67/ 78
  Displacement:        1/  2
  Total:             133/156
 bond charge predicted
       N       E                     dE             d eps       ncg     rms          rms(c)
DAV:   1    -0.102701936003E+03   -0.79662E-03   -0.55430E-01    96   0.230E+00    0.232E-01
DAV:   2    -0.102701583430E+03    0.35257E-03   -0.30815E-03   132   0.167E-01    0.121E-01
DAV:   3    -0.102701363124E+03    0.22031E-03   -0.50297E-04   120   0.593E-02    0.351E-02
DAV:   4    -0.102701358113E+03    0.50101E-05   -0.99334E-05   132   0.284E-02    0.117E-02
DAV:   5    -0.102701358158E+03   -0.44254E-07   -0.56101E-06   132   0.913E-03
 135 F= -.10270136E+03 E0= -.10270136E+03  d E =-.764920E-10
 Finite differences progress:
  Degree of freedom:  67/ 78
  Displacement:        2/  2
  Total:             134/156
 bond charge predicted
       N       E                     dE             d eps       ncg     rms          rms(c)
DAV:   1    -0.102700547332E+03    0.81078E-03   -0.29041E-01    96   0.166E+00    0.209E-01
DAV:   2    -0.102700287491E+03    0.25984E-03   -0.23121E-03   132   0.143E-01    0.103E-01
DAV:   3    -0.102700147254E+03    0.14024E-03   -0.41159E-04   132   0.562E-02    0.350E-02
DAV:   4    -0.102700147557E+03   -0.30328E-06   -0.10359E-04   144   0.285E-02    0.144E-02
DAV:   5    -0.102700146199E+03    0.13586E-05   -0.47957E-06   132   0.816E-03    0.623E-03
DAV:   6    -0.102700146304E+03   -0.10469E-06   -0.25762E-06   132   0.532E-03
 136 F= -.10270015E+03 E0= -.10270015E+03  d E =-.441927E-11
 Finite differences progress:
  Degree of freedom:  68/ 78
  Displacement:        1/  2
  Total:             135/156
 bond charge predicted
       N       E                     dE             d eps       ncg     rms          rms(c)
DAV:   1    -0.102701084051E+03   -0.93785E-03   -0.57498E-01    96   0.224E+00    0.270E-01
DAV:   2    -0.102700510611E+03    0.57344E-03   -0.42246E-03   132   0.191E-01    0.138E-01
DAV:   3    -0.102700208100E+03    0.30251E-03   -0.90304E-04   132   0.795E-02    0.421E-02
DAV:   4    -0.102700209763E+03   -0.16632E-05   -0.17193E-04   132   0.378E-02    0.190E-02
DAV:   5    -0.102700208893E+03    0.87077E-06   -0.70515E-06   132   0.955E-03
 137 F= -.10270021E+03 E0= -.10270021E+03  d E =-.941116E-10
 Finite differences progress:
  Degree of freedom:  68/ 78
  Displacement:        2/  2
  Total:             136/156
 bond charge predicted
       N       E                     dE             d eps       ncg     rms          rms(c)
DAV:   1    -0.102701725331E+03   -0.15156E-02   -0.28934E-01   108   0.160E+00    0.207E-01
DAV:   2    -0.102701437192E+03    0.28814E-03   -0.21746E-03   132   0.144E-01    0.101E-01
DAV:   3    -0.102701298300E+03    0.13889E-03   -0.44031E-04   132   0.588E-02    0.335E-02
DAV:   4    -0.102701299671E+03   -0.13711E-05   -0.94973E-05   132   0.293E-02    0.134E-02
DAV:   5    -0.102701298925E+03    0.74620E-06   -0.40807E-06   132   0.772E-03
 138 F= -.10270130E+03 E0= -.10270130E+03  d E =-.492665E-11
 Finite differences progress:
  Degree of freedom:  69/ 78
  Displacement:        1/  2
  Total:             137/156
 bond charge predicted
       N       E                     dE             d eps       ncg     rms          rms(c)
DAV:   1    -0.102701951322E+03   -0.65165E-03   -0.54789E-01    96   0.242E+00    0.228E-01
DAV:   2    -0.102701617972E+03    0.33335E-03   -0.31975E-03   132   0.174E-01    0.121E-01
DAV:   3    -0.102701409245E+03    0.20873E-03   -0.50988E-04   132   0.651E-02    0.342E-02
DAV:   4    -0.102701412650E+03   -0.34053E-05   -0.99979E-05   132   0.306E-02    0.120E-02
DAV:   5    -0.102701412694E+03   -0.43973E-07   -0.58978E-06   132   0.950E-03
 139 F= -.10270141E+03 E0= -.10270141E+03  d E =-.897481E-10
 Finite differences progress:
  Degree of freedom:  69/ 78
  Displacement:        2/  2
  Total:             138/156
 bond charge predicted
       N       E                     dE             d eps       ncg     rms          rms(c)
DAV:   1    -0.102701073394E+03    0.33926E-03   -0.27690E-01    96   0.179E+00    0.167E-01
DAV:   2    -0.102700955040E+03    0.11835E-03   -0.17296E-03   120   0.127E-01    0.881E-02
DAV:   3    -0.102700856692E+03    0.98348E-04   -0.26452E-04   132   0.423E-02    0.260E-02
DAV:   4    -0.102700853275E+03    0.34172E-05   -0.39262E-05   132   0.175E-02    0.103E-02
DAV:   5    -0.102700851627E+03    0.16476E-05   -0.29407E-06   132   0.677E-03    0.490E-03
DAV:   6    -0.102700851657E+03   -0.29715E-07   -0.21074E-06   132   0.507E-03
 140 F= -.10270085E+03 E0= -.10270085E+03  d E =-.506277E-11
 Finite differences progress:
  Degree of freedom:  70/ 78
  Displacement:        1/  2
  Total:             139/156
 bond charge predicted
       N       E                     dE             d eps       ncg     rms          rms(c)
DAV:   1    -0.102701718761E+03   -0.86713E-03   -0.55788E-01    96   0.229E+00    0.245E-01
DAV:   2    -0.102701330816E+03    0.38794E-03   -0.33058E-03   132   0.171E-01    0.125E-01
DAV:   3    -0.102701102686E+03    0.22813E-03   -0.54237E-04   120   0.610E-02    0.387E-02
DAV:   4    -0.102701094276E+03    0.84098E-05   -0.11427E-04   132   0.301E-02    0.129E-02
DAV:   5    -0.102701093940E+03    0.33573E-06   -0.65128E-06   132   0.100E-02
 141 F= -.10270109E+03 E0= -.10270109E+03  d E =-.765163E-10
 Finite differences progress:
  Degree of freedom:  70/ 78
  Displacement:        2/  2
  Total:             140/156
 bond charge predicted
       N       E                     dE             d eps       ncg     rms          rms(c)
DAV:   1    -0.102700200673E+03    0.89360E-03   -0.27365E-01    96   0.161E+00    0.140E-01
DAV:   2    -0.102700062237E+03    0.13844E-03   -0.14791E-03   132   0.114E-01    0.789E-02
DAV:   3    -0.102699975303E+03    0.86934E-04   -0.27673E-04   132   0.471E-02    0.167E-02
DAV:   4    -0.102699980357E+03   -0.50542E-05   -0.44383E-05   132   0.203E-02    0.745E-03
DAV:   5    -0.102699981360E+03   -0.10026E-05   -0.13710E-06   120   0.435E-03    0.482E-03
DAV:   6    -0.102699983482E+03   -0.21219E-05   -0.12762E-06   108   0.350E-03    0.623E-04
DAV:   7    -0.102699984353E+03   -0.87189E-06   -0.21980E-07   108   0.166E-03
 142 F= -.10269998E+03 E0= -.10269998E+03  d E =-.937342E-10
 Finite differences progress:
  Degree of freedom:  71/ 78
  Displacement:        1/  2
  Total:             141/156
 bond charge predicted
       N       E                     dE             d eps       ncg     rms          rms(c)
DAV:   1    -0.102700704678E+03   -0.72120E-03   -0.58273E-01    96   0.221E+00    0.287E-01
DAV:   2    -0.102700115117E+03    0.58956E-03   -0.44726E-03   132   0.198E-01    0.142E-01
DAV:   3    -0.102699805947E+03    0.30917E-03   -0.90389E-04   132   0.815E-02    0.463E-02
DAV:   4    -0.102699806210E+03   -0.26336E-06   -0.20676E-04   132   0.403E-02    0.193E-02
DAV:   5    -0.102699803829E+03    0.23817E-05   -0.94460E-06   132   0.107E-02    0.812E-03
DAV:   6    -0.102699804574E+03   -0.74480E-06   -0.50739E-06   132   0.730E-03
 143 F= -.10269980E+03 E0= -.10269980E+03  d E =-.453760E-11
 Finite differences progress:
  Degree of freedom:  71/ 78
  Displacement:        2/  2
  Total:             142/156
 bond charge predicted
       N       E                     dE             d eps       ncg     rms          rms(c)
DAV:   1    -0.102702190324E+03   -0.23865E-02   -0.28228E-01   108   0.154E+00    0.171E-01
DAV:   2    -0.102701958305E+03    0.23202E-03   -0.17880E-03   132   0.137E-01    0.898E-02
DAV:   3    -0.102701843045E+03    0.11526E-03   -0.36062E-04   132   0.586E-02    0.252E-02
DAV:   4    -0.102701848621E+03   -0.55763E-05   -0.78190E-05   132   0.277E-02    0.113E-02
DAV:   5    -0.102701848859E+03   -0.23828E-06   -0.30063E-06   132   0.639E-03
 144 F= -.10270185E+03 E0= -.10270185E+03  d E =-.465360E-11
 Finite differences progress:
  Degree of freedom:  72/ 78
  Displacement:        1/  2
  Total:             143/156
 bond charge predicted
       N       E                     dE             d eps       ncg     rms          rms(c)
DAV:   1    -0.102702412525E+03   -0.56390E-03   -0.54244E-01    96   0.248E+00    0.201E-01
DAV:   2    -0.102702118375E+03    0.29415E-03   -0.26883E-03   132   0.174E-01    0.113E-01
DAV:   3    -0.102701940937E+03    0.17744E-03   -0.47411E-04   132   0.661E-02    0.222E-02
DAV:   4    -0.102701947648E+03   -0.67111E-05   -0.78483E-05   120   0.284E-02    0.901E-03
DAV:   5    -0.102701948021E+03   -0.37316E-06   -0.32241E-06   132   0.660E-03
 145 F= -.10270195E+03 E0= -.10270195E+03  d E =-.926899E-10
 Finite differences progress:
  Degree of freedom:  72/ 78
  Displacement:        2/  2
  Total:             144/156
 bond charge predicted
       N       E                     dE             d eps       ncg     rms          rms(c)
DAV:   1    -0.102701233862E+03    0.71379E-03   -0.27742E-01    96   0.196E+00    0.158E-01
DAV:   2    -0.102701097566E+03    0.13630E-03   -0.20061E-03   132   0.164E-01    0.862E-02
DAV:   3    -0.102700997016E+03    0.10055E-03   -0.28351E-04   132   0.560E-02    0.255E-02
DAV:   4    -0.102701001562E+03   -0.45466E-05   -0.75324E-05   132   0.275E-02    0.960E-03
DAV:   5    -0.102701001247E+03    0.31532E-06   -0.27975E-06   132   0.662E-03
 146 F= -.10270100E+03 E0= -.10270100E+03  d E =-.436406E-11
 Finite differences progress:
  Degree of freedom:  73/ 78
  Displacement:        1/  2
  Total:             145/156
 bond charge predicted
       N       E                     dE             d eps       ncg     rms          rms(c)
DAV:   1    -0.102701693772E+03   -0.69221E-03   -0.56271E-01    96   0.236E+00    0.238E-01
DAV:   2    -0.102701250901E+03    0.44287E-03   -0.37616E-03   144   0.183E-01    0.127E-01
DAV:   3    -0.102700999170E+03    0.25173E-03   -0.72303E-04   132   0.746E-02    0.354E-02
DAV:   4    -0.102701004207E+03   -0.50374E-05   -0.14396E-04   132   0.370E-02    0.162E-02
DAV:   5    -0.102701003615E+03    0.59167E-06   -0.53529E-06   132   0.862E-03
 147 F= -.10270100E+03 E0= -.10270100E+03  d E =-.454736E-11
 Finite differences progress:
  Degree of freedom:  73/ 78
  Displacement:        2/  2
  Total:             146/156
 bond charge predicted
       N       E                     dE             d eps       ncg     rms          rms(c)
DAV:   1    -0.102700293896E+03    0.71031E-03   -0.27291E-01    96   0.171E+00    0.141E-01
DAV:   2    -0.102700153542E+03    0.14035E-03   -0.13708E-03   120   0.112E-01    0.784E-02
DAV:   3    -0.102700062488E+03    0.91055E-04   -0.22391E-04   132   0.419E-02    0.177E-02
DAV:   4    -0.102700064750E+03   -0.22618E-05   -0.39364E-05   132   0.188E-02    0.639E-03
DAV:   5    -0.102700065888E+03   -0.11387E-05   -0.18669E-06   132   0.504E-03    0.393E-03
DAV:   6    -0.102700068067E+03   -0.21789E-05   -0.83279E-07    96   0.310E-03    0.904E-04
DAV:   7    -0.102700069822E+03   -0.17549E-05   -0.25579E-07   108   0.175E-03    0.619E-04
DAV:   8    -0.102700072363E+03   -0.25409E-05   -0.12413E-07    96   0.132E-03    0.276E-04
DAV:   9    -0.102700074630E+03   -0.22673E-05   -0.14886E-07   108   0.113E-03    0.231E-04
DAV:  10    -0.102700076479E+03   -0.18490E-05   -0.89677E-08   108   0.774E-04    0.122E-04
DAV:  11    -0.102700077217E+03   -0.73756E-06   -0.19839E-08   108   0.385E-04
 148 F= -.10270008E+03 E0= -.10270008E+03  d E =-.894999E-10
 Finite differences progress:
  Degree of freedom:  74/ 78
  Displacement:        1/  2
  Total:             147/156
 bond charge predicted
       N       E                     dE             d eps       ncg     rms          rms(c)
DAV:   1    -0.102700477851E+03   -0.40137E-03   -0.57757E-01    96   0.228E+00    0.298E-01
DAV:   2    -0.102699977935E+03    0.49992E-03   -0.41718E-03   132   0.189E-01    0.141E-01
DAV:   3    -0.102699687967E+03    0.28997E-03   -0.70769E-04   132   0.709E-02    0.513E-02
DAV:   4    -0.102699668398E+03    0.19569E-04   -0.18721E-04   132   0.372E-02    0.183E-02
DAV:   5    -0.102699665501E+03    0.28974E-05   -0.10105E-05   132   0.122E-02    0.769E-03
DAV:   6    -0.102699667044E+03   -0.15433E-05   -0.46956E-06   132   0.715E-03    0.320E-03
DAV:   7    -0.102699670203E+03   -0.31585E-05   -0.10687E-06   132   0.337E-03    0.117E-03
DAV:   8    -0.102699674284E+03   -0.40818E-05   -0.26077E-07   108   0.184E-03    0.743E-04
DAV:   9    -0.102699678698E+03   -0.44137E-05   -0.27304E-07   108   0.144E-03    0.461E-04
DAV:  10    -0.102699683977E+03   -0.52788E-05   -0.29202E-07   108   0.127E-03    0.210E-04
DAV:  11    -0.102699686669E+03   -0.26922E-05   -0.86492E-08   108   0.718E-04    0.179E-04
DAV:  12    -0.102699688186E+03   -0.15171E-05   -0.15373E-08   108   0.355E-04    0.115E-04
DAV:  13    -0.102699689678E+03   -0.14916E-05   -0.18870E-08   108   0.353E-04    0.757E-05
DAV:  14    -0.102699690373E+03   -0.69477E-06   -0.53614E-09   108   0.219E-04
 149 F= -.10269969E+03 E0= -.10269969E+03  d E =-.454092E-11
 Finite differences progress:
  Degree of freedom:  74/ 78
  Displacement:        2/  2
  Total:             148/156
 bond charge predicted
       N       E                     dE             d eps       ncg     rms          rms(c)
DAV:   1    -0.102702167864E+03   -0.24782E-02   -0.27808E-01    96   0.157E+00    0.172E-01
DAV:   2    -0.102701953401E+03    0.21446E-03   -0.17043E-03   132   0.147E-01    0.892E-02
DAV:   3    -0.102701841022E+03    0.11238E-03   -0.31009E-04   132   0.528E-02    0.265E-02
DAV:   4    -0.102701842284E+03   -0.12621E-05   -0.61328E-05   120   0.244E-02    0.103E-02
DAV:   5    -0.102701842938E+03   -0.65413E-06   -0.35368E-06   132   0.741E-03
 150 F= -.10270184E+03 E0= -.10270184E+03  d E =-.422723E-11
 Finite differences progress:
  Degree of freedom:  75/ 78
  Displacement:        1/  2
  Total:             149/156
 bond charge predicted
       N       E                     dE             d eps       ncg     rms          rms(c)
DAV:   1    -0.102702415805E+03   -0.57352E-03   -0.54237E-01    96   0.247E+00    0.201E-01
DAV:   2    -0.102702119095E+03    0.29671E-03   -0.27047E-03   132   0.176E-01    0.113E-01
DAV:   3    -0.102701941339E+03    0.17776E-03   -0.47009E-04   132   0.659E-02    0.225E-02
DAV:   4    -0.102701949043E+03   -0.77041E-05   -0.79271E-05   120   0.286E-02    0.903E-03
DAV:   5    -0.102701950412E+03   -0.13696E-05   -0.32867E-06   132   0.667E-03    0.618E-03
DAV:   6    -0.102701954057E+03   -0.36450E-05   -0.19498E-06   132   0.439E-03    0.119E-03
DAV:   7    -0.102701956219E+03   -0.21618E-05   -0.26270E-07   108   0.189E-03    0.924E-04
DAV:   8    -0.102701959358E+03   -0.31391E-05   -0.12618E-07   108   0.149E-03    0.426E-04
DAV:   9    -0.102701962671E+03   -0.33123E-05   -0.17764E-07   108   0.152E-03    0.364E-04
DAV:  10    -0.102701965105E+03   -0.24343E-05   -0.12686E-07   108   0.942E-04    0.196E-04
DAV:  11    -0.102701966341E+03   -0.12358E-05   -0.33268E-08   108   0.497E-04    0.180E-04
DAV:  12    -0.102701967170E+03   -0.82925E-06   -0.17192E-08   108   0.349E-04
 151 F= -.10270197E+03 E0= -.10270197E+03  d E =-.941199E-10
 Finite differences progress:
  Degree of freedom:  75/ 78
  Displacement:        2/  2
  Total:             150/156
 bond charge predicted
       N       E                     dE             d eps       ncg     rms          rms(c)
DAV:   1    -0.102700028352E+03    0.19380E-02   -0.28072E-01    96   0.182E+00    0.180E-01
DAV:   2    -0.102699792683E+03    0.23567E-03   -0.21318E-03   132   0.148E-01    0.907E-02
DAV:   3    -0.102699659477E+03    0.13321E-03   -0.35036E-04   132   0.567E-02    0.302E-02
DAV:   4    -0.102699662746E+03   -0.32697E-05   -0.99515E-05   120   0.292E-02    0.106E-02
DAV:   5    -0.102699663568E+03   -0.82177E-06   -0.49940E-06   132   0.797E-03
 152 F= -.10269966E+03 E0= -.10269966E+03  d E =-.874312E-10
 Finite differences progress:
  Degree of freedom:  76/ 78
  Displacement:        1/  2
  Total:             151/156
 bond charge predicted
       N       E                     dE             d eps       ncg     rms          rms(c)
DAV:   1    -0.102700422536E+03   -0.75979E-03   -0.58433E-01    96   0.218E+00    0.298E-01
DAV:   2    -0.102699803585E+03    0.61895E-03   -0.45500E-03   132   0.203E-01    0.146E-01
DAV:   3    -0.102699486918E+03    0.31667E-03   -0.93847E-04   132   0.829E-02    0.473E-02
DAV:   4    -0.102699484849E+03    0.20688E-05   -0.20062E-04   120   0.407E-02    0.207E-02
DAV:   5    -0.102699482409E+03    0.24399E-05   -0.88971E-06   132   0.109E-02    0.797E-03
DAV:   6    -0.102699482932E+03   -0.52335E-06   -0.53161E-06   120   0.779E-03
 153 F= -.10269948E+03 E0= -.10269948E+03  d E =-.487938E-11
 Finite differences progress:
  Degree of freedom:  76/ 78
  Displacement:        2/  2
  Total:             152/156
 bond charge predicted
       N       E                     dE             d eps       ncg     rms          rms(c)
DAV:   1    -0.102702306398E+03   -0.28240E-02   -0.28485E-01    96   0.156E+00    0.194E-01
DAV:   2    -0.102702054161E+03    0.25224E-03   -0.19552E-03   132   0.139E-01    0.968E-02
DAV:   3    -0.102701928062E+03    0.12610E-03   -0.35768E-04   132   0.501E-02    0.310E-02
DAV:   4    -0.102701926798E+03    0.12643E-05   -0.73607E-05   132   0.244E-02    0.118E-02
DAV:   5    -0.102701926125E+03    0.67347E-06   -0.37343E-06   132   0.781E-03
 154 F= -.10270193E+03 E0= -.10270193E+03  d E =-.837640E-10
 Finite differences progress:
  Degree of freedom:  77/ 78
  Displacement:        1/  2
  Total:             153/156
 bond charge predicted
       N       E                     dE             d eps       ncg     rms          rms(c)
DAV:   1    -0.102702204034E+03   -0.27724E-03   -0.55055E-01    96   0.227E+00    0.205E-01
DAV:   2    -0.102701921990E+03    0.28204E-03   -0.27075E-03   120   0.160E-01    0.113E-01
DAV:   3    -0.102701735997E+03    0.18599E-03   -0.45526E-04   132   0.578E-02    0.280E-02
DAV:   4    -0.102701739198E+03   -0.32010E-05   -0.82848E-05   132   0.265E-02    0.876E-03
DAV:   5    -0.102701738164E+03    0.10335E-05   -0.38251E-06   132   0.695E-03    0.581E-03
DAV:   6    -0.102701738151E+03    0.12881E-07   -0.18614E-06   120   0.434E-03
 155 F= -.10270174E+03 E0= -.10270174E+03  d E =-.501999E-11
 Finite differences progress:
  Degree of freedom:  77/ 78
  Displacement:        2/  2
  Total:             154/156
 bond charge predicted
       N       E                     dE             d eps       ncg     rms          rms(c)
DAV:   1    -0.102701583473E+03    0.15469E-03   -0.27378E-01    96   0.164E+00    0.148E-01
DAV:   2    -0.102701416553E+03    0.16692E-03   -0.14247E-03   132   0.119E-01    0.818E-02
DAV:   3    -0.102701330801E+03    0.85752E-04   -0.25902E-04   132   0.495E-02    0.175E-02
DAV:   4    -0.102701336519E+03   -0.57181E-05   -0.50691E-05   132   0.225E-02    0.750E-03
DAV:   5    -0.102701336897E+03   -0.37785E-06   -0.18063E-06   132   0.512E-03
 156 F= -.10270134E+03 E0= -.10270134E+03  d E =-.470246E-11
 Finite differences progress:
  Degree of freedom:  78/ 78
  Displacement:        1/  2
  Total:             155/156
 bond charge predicted
       N       E                     dE             d eps       ncg     rms          rms(c)
DAV:   1    -0.102701964817E+03   -0.62830E-03   -0.54769E-01    96   0.239E+00    0.228E-01
DAV:   2    -0.102701623726E+03    0.34109E-03   -0.32064E-03   132   0.173E-01    0.120E-01
DAV:   3    -0.102701412669E+03    0.21106E-03   -0.50773E-04   132   0.650E-02    0.340E-02
DAV:   4    -0.102701414356E+03   -0.16875E-05   -0.99726E-05   132   0.304E-02    0.121E-02
DAV:   5    -0.102701415241E+03   -0.88482E-06   -0.58770E-06   132   0.948E-03
 157 F= -.10270142E+03 E0= -.10270142E+03  d E =-.826423E-10
 Finite differences progress:
  Degree of freedom:  78/ 78
  Displacement:        2/  2
  Total:             156/156
 Finite differences POTIM=  2.000000000000000E-002
