<?xml version="1.0" encoding="ISO-8859-1"?>
<modeling>
 <generator>
  <i name="program" type="string">vasp </i>
  <i name="version" type="string">5.4.4.18Apr17-6-g9f103f2a35  </i>
  <i name="subversion" type="string">(build Nov 06 2017 19:16:10) complex            parallel </i>
  <i name="platform" type="string">IFC91_ompi </i>
  <i name="date" type="string">2018 07 15 </i>
  <i name="time" type="string">00:02:01 </i>
 </generator>
 <incar>
  <i type="string" name="SYSTEM">SiGe</i>
  <i type="string" name="PREC">normal</i>
  <i type="int" name="IBRION">     5</i>
  <i type="int" name="NFREE">     2</i>
  <i name="EDIFF">      0.00000100</i>
  <i name="EDIFFG">     -0.01000000</i>
  <i type="int" name="NSW">   300</i>
  <i type="int" name="ISIF">     2</i>
  <i name="ENCUT">    400.00000000</i>
  <i name="POTIM">      0.02000000</i>
  <i type="logical" name="LREAL"> F  </i>
  <i type="int" name="ISMEAR">     0</i>
  <i type="logical" name="LWAVE"> F  </i>
  <i type="logical" name="LCHARG"> F  </i>
  <v type="int" name="KPOINT_BSE">    -1     0     0     0</v>
 </incar>
 <structure name="primitive_cell" >
  <crystal>
   <varray name="basis" >
    <v>      20.00000000       0.00000000       0.00000000 </v>
    <v>       0.00000000      20.00000000       0.00000000 </v>
    <v>       0.00000000       0.00000000      20.00000000 </v>
   </varray>
   <i name="volume">   8000.00000000 </i>
   <varray name="rec_basis" >
    <v>       0.05000000       0.00000000       0.00000000 </v>
    <v>       0.00000000       0.05000000       0.00000000 </v>
    <v>       0.00000000       0.00000000       0.05000000 </v>
   </varray>
  </crystal>
  <varray name="positions" >
   <v>       0.36849439      -0.46090087       0.43610395 </v>
   <v>       0.32632000      -0.39950655       0.42845252 </v>
   <v>       0.33294576       0.48223687       0.40278823 </v>
   <v>       0.47539508      -0.44362425       0.38409147 </v>
   <v>       0.38410808      -0.48534234      -0.44731742 </v>
   <v>       0.31455839      -0.49658007      -0.41349297 </v>
   <v>       0.46522530      -0.42773123       0.30825055 </v>
   <v>      -0.46869642      -0.35150524       0.43719749 </v>
   <v>      -0.45796924       0.45708859       0.39564349 </v>
   <v>       0.44003906      -0.39320872      -0.39425827 </v>
   <v>       0.45076848       0.41537799      -0.43582089 </v>
   <v>       0.49047295      -0.28921389       0.42954541 </v>
   <v>       0.39844785      -0.33126420      -0.40050825 </v>
   <v>       0.41590239       0.35750455      -0.46808578 </v>
   <v>      -0.49207615       0.39955427       0.36198792 </v>
   <v>      -0.45303923      -0.37590548      -0.44622328 </v>
   <v>      -0.44230373       0.43262323      -0.48779055 </v>
   <v>      -0.39150303       0.46715403       0.36265779 </v>
   <v>      -0.40231449      -0.33987180       0.40455424 </v>
   <v>       0.44927020      -0.40768990      -0.32137029 </v>
   <v>       0.46008825       0.39931791      -0.36327538 </v>
   <v>      -0.38642624      -0.47521450      -0.43472733 </v>
   <v>      -0.41666827      -0.31596814      -0.41169807 </v>
   <v>      -0.39894638       0.36803411      -0.48029512 </v>
   <v>      -0.31936861      -0.46460496      -0.46631351 </v>
   <v>      -0.37575441      -0.49035940      -0.36217896 </v>
  </varray>
 </structure>
 <varray name="primitive_index" >
  <v type="int" >        1 </v>
  <v type="int" >       24 </v>
  <v type="int" >       23 </v>
  <v type="int" >        7 </v>
  <v type="int" >        8 </v>
  <v type="int" >       22 </v>
  <v type="int" >       18 </v>
  <v type="int" >        3 </v>
  <v type="int" >        2 </v>
  <v type="int" >        6 </v>
  <v type="int" >        5 </v>
  <v type="int" >       25 </v>
  <v type="int" >       21 </v>
  <v type="int" >       11 </v>
  <v type="int" >       17 </v>
  <v type="int" >       10 </v>
  <v type="int" >        9 </v>
  <v type="int" >       16 </v>
  <v type="int" >       26 </v>
  <v type="int" >       20 </v>
  <v type="int" >       12 </v>
  <v type="int" >        4 </v>
  <v type="int" >       19 </v>
  <v type="int" >       13 </v>
  <v type="int" >       14 </v>
  <v type="int" >       15 </v>
 </varray>
 <kpoints>
  <generation param="Gamma">
   <v type="int" name="divisions">       1        1        1 </v>
   <v name="usershift">      0.00000000       0.00000000       0.00000000 </v>
   <v name="genvec1">      1.00000000       0.00000000       0.00000000 </v>
   <v name="genvec2">      0.00000000       1.00000000       0.00000000 </v>
   <v name="genvec3">      0.00000000       0.00000000       1.00000000 </v>
   <v name="shift">      0.00000000       0.00000000       0.00000000 </v>
  </generation>
  <varray name="kpointlist" >
   <v>       0.00000000       0.00000000       0.00000000 </v>
  </varray>
  <varray name="weights" >
   <v>       1.00000000 </v>
  </varray>
 </kpoints>
 <parameters>
  <separator name="general" >
   <i type="string" name="SYSTEM">SiGe</i>
   <i type="logical" name="LCOMPAT"> F  </i>
  </separator>
  <separator name="electronic" >
   <i type="string" name="PREC">normal</i>
   <i name="ENMAX">    400.00000000</i>
   <i name="ENAUG">    400.00000000</i>
   <i name="EDIFF">      0.00000100</i>
   <i type="int" name="IALGO">    38</i>
   <i type="int" name="IWAVPR">    11</i>
   <i type="int" name="NBANDS">    48</i>
   <i name="NELECT">     56.00000000</i>
   <i type="int" name="TURBO">     0</i>
   <i type="int" name="IRESTART">     0</i>
   <i type="int" name="NREBOOT">     0</i>
   <i type="int" name="NMIN">     0</i>
   <i name="EREF">      0.00000000</i>
   <separator name="electronic smearing" >
    <i type="int" name="ISMEAR">     0</i>
    <i name="SIGMA">      0.20000000</i>
    <i name="KSPACING">      0.50000000</i>
    <i type="logical" name="KGAMMA"> T  </i>
   </separator>
   <separator name="electronic projectors" >
    <i type="logical" name="LREAL"> F  </i>
    <v name="ROPT">      0.00000000      0.00000000      0.00000000</v>
    <i type="int" name="LMAXPAW">  -100</i>
    <i type="int" name="LMAXMIX">     2</i>
    <i type="logical" name="NLSPLINE"> F  </i>
   </separator>
   <separator name="electronic startup" >
    <i type="int" name="ISTART">     0</i>
    <i type="int" name="ICHARG">     2</i>
    <i type="int" name="INIWAV">     1</i>
   </separator>
   <separator name="electronic spin" >
    <i type="int" name="ISPIN">     1</i>
    <i type="logical" name="LNONCOLLINEAR"> F  </i>
    <v name="MAGMOM">      1.00000000      1.00000000      1.00000000      1.00000000      1.00000000      1.00000000      1.00000000      1.00000000      1.00000000      1.00000000      1.00000000      1.00000000      1.00000000      1.00000000      1.00000000      1.00000000      1.00000000      1.00000000      1.00000000      1.00000000
      1.00000000      1.00000000      1.00000000      1.00000000      1.00000000      1.00000000</v>
    <i name="NUPDOWN">     -1.00000000</i>
    <i type="logical" name="LSORBIT"> F  </i>
    <v name="SAXIS">      0.00000000      0.00000000      1.00000000</v>
    <i type="logical" name="LSPIRAL"> F  </i>
    <v name="QSPIRAL">      0.00000000      0.00000000      0.00000000</v>
    <i type="logical" name="LZEROZ"> F  </i>
   </separator>
   <separator name="electronic exchange-correlation" >
    <i type="logical" name="LASPH"> F  </i>
    <i type="logical" name="LMETAGGA"> F  </i>
   </separator>
   <separator name="electronic convergence" >
    <i type="int" name="NELM">    60</i>
    <i type="int" name="NELMDL">    -5</i>
    <i type="int" name="NELMIN">     2</i>
    <i name="ENINI">    400.00000000</i>
    <separator name="electronic convergence detail" >
     <i type="logical" name="LDIAG"> T  </i>
     <i type="logical" name="LSUBROT"> F  </i>
     <i name="WEIMIN">      0.00100000</i>
     <i name="EBREAK">      0.00000001</i>
     <i name="DEPER">      0.30000000</i>
     <i type="int" name="NRMM">     4</i>
     <i name="TIME">      0.40000000</i>
    </separator>
   </separator>
   <separator name="electronic mixer" >
    <i name="AMIX">      0.40000000</i>
    <i name="BMIX">      1.00000000</i>
    <i name="AMIN">      0.10000000</i>
    <i name="AMIX_MAG">      1.60000000</i>
    <i name="BMIX_MAG">      1.00000000</i>
    <separator name="electronic mixer details" >
     <i type="int" name="IMIX">     4</i>
     <i type="logical" name="MIXFIRST"> F  </i>
     <i type="int" name="MAXMIX">   -45</i>
     <i name="WC">    100.00000000</i>
     <i type="int" name="INIMIX">     1</i>
     <i type="int" name="MIXPRE">     1</i>
     <i type="int" name="MREMOVE">     5</i>
    </separator>
   </separator>
   <separator name="electronic dipolcorrection" >
    <i type="logical" name="LDIPOL"> F  </i>
    <i type="logical" name="LMONO"> F  </i>
    <i type="int" name="IDIPOL">     0</i>
    <i name="EPSILON">      1.00000000</i>
    <v name="DIPOL">   -100.00000000   -100.00000000   -100.00000000</v>
    <i name="EFIELD">      0.00000000</i>
   </separator>
  </separator>
  <separator name="grids" >
   <i type="int" name="NGX">    98</i>
   <i type="int" name="NGY">    98</i>
   <i type="int" name="NGZ">    98</i>
   <i type="int" name="NGXF">   196</i>
   <i type="int" name="NGYF">   196</i>
   <i type="int" name="NGZF">   196</i>
   <i type="logical" name="ADDGRID"> F  </i>
  </separator>
  <separator name="ionic" >
   <i type="int" name="NSW">   349</i>
   <i type="int" name="IBRION">     5</i>
   <i type="int" name="MDALGO">     0</i>
   <i type="int" name="ISIF">     2</i>
   <i name="PSTRESS">      0.00000000</i>
   <i name="EDIFFG">     -0.01000000</i>
   <i type="int" name="NFREE">     2</i>
   <i name="POTIM">      0.02000000</i>
   <i name="SMASS">     -3.00000000</i>
   <i name="SCALEE">      1.00000000</i>
  </separator>
  <separator name="ionic md" >
   <i name="TEBEG">      0.00010000</i>
   <i name="TEEND">      0.00010000</i>
   <i type="int" name="NBLOCK">     1</i>
   <i type="int" name="KBLOCK">   349</i>
   <i type="int" name="NPACO">   256</i>
   <i name="APACO">     16.00000000</i>
  </separator>
  <separator name="symmetry" >
   <i type="int" name="ISYM">     2</i>
   <i name="SYMPREC">      0.00001000</i>
  </separator>
  <separator name="dos" >
   <i type="int" name="LORBIT">     0</i>
   <v name="RWIGS">     -1.00000000     -1.00000000     -1.00000000</v>
   <i type="int" name="NEDOS">   301</i>
   <i name="EMIN">     10.00000000</i>
   <i name="EMAX">    -10.00000000</i>
   <i name="EFERMI">      0.00000000</i>
  </separator>
  <separator name="writing" >
   <i type="int" name="NWRITE">     2</i>
   <i type="logical" name="LWAVE"> F  </i>
   <i type="logical" name="LDOWNSAMPLE"> F  </i>
   <i type="logical" name="LCHARG"> F  </i>
   <i type="logical" name="LPARD"> F  </i>
   <i type="logical" name="LVTOT"> F  </i>
   <i type="logical" name="LVHAR"> F  </i>
   <i type="logical" name="LELF"> F  </i>
   <i type="logical" name="LOPTICS"> F  </i>
   <v name="STM">      0.00000000      0.00000000      0.00000000      0.00000000      0.00000000      0.00000000      0.00000000</v>
  </separator>
  <separator name="performance" >
   <i type="int" name="NPAR">    12</i>
   <i type="int" name="NSIM">     4</i>
   <i type="int" name="NBLK">    -1</i>
   <i type="logical" name="LPLANE"> T  </i>
   <i type="logical" name="LSCALAPACK"> T  </i>
   <i type="logical" name="LSCAAWARE"> F  </i>
   <i type="logical" name="LSCALU"> F  </i>
   <i type="logical" name="LASYNC"> F  </i>
   <i type="logical" name="LORBITALREAL"> F  </i>
  </separator>
  <separator name="miscellaneous" >
   <i type="int" name="IDIOT">     3</i>
   <i type="int" name="ISPECIAL">     0</i>
   <i type="logical" name="LMUSIC"> F  </i>
   <v name="POMASS">     28.08500000     72.61000000      1.00000000</v>
   <v name="DARWINR">      0.00000000      0.00000000      0.00000000</v>
   <v name="DARWINV">      1.00000000      1.00000000      1.00000000</v>
   <i type="logical" name="LCORR"> T  </i>
  </separator>
  <i type="logical" name="GGA_COMPAT"> T  </i>
  <i type="logical" name="LBERRY"> F  </i>
  <i type="int" name="ICORELEVEL">     0</i>
  <i type="logical" name="LDAU"> F  </i>
  <i type="int" name="I_CONSTRAINED_M">     0</i>
  <separator name="electronic exchange-correlation" >
   <i type="string" name="GGA">--</i>
   <i type="int" name="VOSKOWN">     0</i>
   <i type="logical" name="LHFCALC"> F  </i>
   <i type="string" name="PRECFOCK"></i>
   <i type="logical" name="LSYMGRAD"> F  </i>
   <i type="logical" name="LHFONE"> F  </i>
   <i type="logical" name="LRHFCALC"> F  </i>
   <i type="logical" name="LTHOMAS"> F  </i>
   <i type="logical" name="LMODELHF"> F  </i>
   <i name="ENCUT4O">     -1.00000000</i>
   <i type="int" name="EXXOEP">     0</i>
   <i type="int" name="FOURORBIT">     0</i>
   <i name="AEXX">      0.00000000</i>
   <i name="HFALPHA">      0.00000000</i>
   <i name="MCALPHA">      0.00000000</i>
   <i name="ALDAX">      1.00000000</i>
   <i name="AGGAX">      1.00000000</i>
   <i name="ALDAC">      1.00000000</i>
   <i name="AGGAC">      1.00000000</i>
   <i type="int" name="NKREDX">     1</i>
   <i type="int" name="NKREDY">     1</i>
   <i type="int" name="NKREDZ">     1</i>
   <i type="logical" name="SHIFTRED"> F  </i>
   <i type="logical" name="ODDONLY"> F  </i>
   <i type="logical" name="EVENONLY"> F  </i>
   <i type="int" name="LMAXFOCK">     0</i>
   <i type="int" name="NMAXFOCKAE">     0</i>
   <i type="logical" name="LFOCKAEDFT"> F  </i>
   <i name="HFSCREEN">      0.00000000</i>
   <i name="HFSCREENC">      0.00000000</i>
   <i type="int" name="NBANDSGWLOW">     0</i>
  </separator>
  <separator name="vdW DFT" >
   <i type="logical" name="LUSE_VDW"> F  </i>
   <i name="Zab_VDW">     -0.84910000</i>
   <i name="PARAM1">      0.12340000</i>
   <i name="PARAM2">      1.00000000</i>
   <i name="PARAM3">      0.00000000</i>
  </separator>
  <separator name="model GW" >
   <i type="int" name="MODEL_GW">     0</i>
   <i name="MODEL_EPS0">    184.61538462</i>
   <i name="MODEL_ALPHA">      1.00000000</i>
  </separator>
  <separator name="linear response parameters" >
   <i type="logical" name="LEPSILON"> F  </i>
   <i type="logical" name="LRPA"> F  </i>
   <i type="logical" name="LNABLA"> F  </i>
   <i type="logical" name="LVEL"> F  </i>
   <i type="int" name="KINTER">     0</i>
   <i name="CSHIFT">      0.10000000</i>
   <i name="OMEGAMAX">     -1.00000000</i>
   <i name="DEG_THRESHOLD">      0.00200000</i>
   <i name="RTIME">     -0.10000000</i>
   <i name="WPLASMAI">      0.00000000</i>
   <v name="DFIELD">      0.00000000      0.00000000      0.00000000</v>
   <v name="WPLASMA">      0.00000000      0.00000000      0.00000000      0.00000000      0.00000000      0.00000000      0.00000000      0.00000000      0.00000000</v>
  </separator>
  <separator name="orbital magnetization" >
   <i type="logical" name="NUCIND"> F  </i>
   <v name="MAGPOS">      0.00000000      0.00000000      0.00000000</v>
   <i type="logical" name="LNICSALL"> T  </i>
   <i type="logical" name="ORBITALMAG"> F  </i>
   <i type="logical" name="LMAGBLOCH"> F  </i>
   <i type="logical" name="LCHIMAG"> F  </i>
   <i type="logical" name="LGAUGE"> T  </i>
   <i type="int" name="MAGATOM">     0</i>
   <v name="MAGDIPOL">      0.00000000      0.00000000      0.00000000</v>
   <v name="AVECCONST">      0.00000000      0.00000000      0.00000000</v>
  </separator>
  <separator name="response functions" >
   <i type="logical" name="LADDER"> F  </i>
   <i type="logical" name="LRPAFORCE"> F  </i>
   <i type="logical" name="LFXC"> F  </i>
   <i type="logical" name="LHARTREE"> T  </i>
   <i type="int" name="IBSE">     0</i>
   <v type="int" name="KPOINT">    -1     0     0     0</v>
   <i type="logical" name="LTCTE"> F  </i>
   <i type="logical" name="LTETE"> F  </i>
   <i type="logical" name="LTRIPLET"> F  </i>
   <i type="logical" name="LFXCEPS"> F  </i>
   <i type="logical" name="LFXHEG"> F  </i>
   <i type="int" name="NATURALO">     2</i>
   <i type="logical" name="L2ORDER"> F  </i>
   <i type="logical" name="LMP2LT"> F  </i>
   <i type="logical" name="LUSEW"> F  </i>
   <i name="ENCUTGW">     -2.00000000</i>
   <i name="ENCUTGWSOFT">     -2.00000000</i>
   <i name="ENCUTLF">     -1.00000000</i>
   <i type="int" name="LMAXMP2">    -1</i>
   <i name="SCISSOR">      0.00000000</i>
   <i type="int" name="NOMEGA">     0</i>
   <i type="int" name="NOMEGAR">     0</i>
   <i type="int" name="NBANDSGW">    -1</i>
   <i type="int" name="NBANDSO">    -1</i>
   <i type="int" name="NBANDSV">    -1</i>
   <i type="int" name="NELM">     1</i>
   <i type="int" name="NELMHF">     1</i>
   <i type="int" name="DIM">     3</i>
   <i type="int" name="ANTIRES">     0</i>
   <i name="OMEGAMAX">    -30.00000000</i>
   <i name="OMEGAMIN">    -30.00000000</i>
   <i name="OMEGATL">   -200.00000000</i>
   <i type="int" name="OMEGAGRID">   140</i>
   <i name="CSHIFT">     -0.10000000</i>
   <i type="logical" name="SELFENERGY"> F  </i>
   <i type="logical" name="LSPECTRAL"> F  </i>
   <i type="logical" name="LSPECTRALGW"> F  </i>
   <i type="logical" name="LSINGLES"> F  </i>
   <i type="logical" name="LFERMIGW"> F  </i>
   <i type="logical" name="ODDONLYGW"> F  </i>
   <i type="logical" name="EVENONLYGW"> F  </i>
   <i type="int" name="NKREDLFX">     1</i>
   <i type="int" name="NKREDLFY">     1</i>
   <i type="int" name="NKREDLFZ">     1</i>
   <i type="int" name="MAXMEM">  2800</i>
   <i type="int" name="TELESCOPE">     0</i>
   <i type="int" name="TAUPAR">     1</i>
   <i type="int" name="OMEGAPAR">    -1</i>
   <i name="LAMBDA">      1.00000000</i>
  </separator>
  <separator name="External order field" >
   <i name="OFIELD_KAPPA">      0.00000000</i>
   <v name="OFIELD_K">      0.00000000      0.00000000      0.00000000</v>
   <i name="OFIELD_Q6_NEAR">      0.00000000</i>
   <i name="OFIELD_Q6_FAR">      0.00000000</i>
   <i name="OFIELD_A">      0.00000000</i>
  </separator>
 </parameters>
 <atominfo>
  <atoms>      26 </atoms>
  <types>       3 </types>
  <array name="atoms" >
   <dimension dim="1">ion</dimension>
   <field type="string">element</field>
   <field type="int">atomtype</field>
   <set>
    <rc><c>Si</c><c>   1</c></rc>
    <rc><c>Si</c><c>   1</c></rc>
    <rc><c>Si</c><c>   1</c></rc>
    <rc><c>Si</c><c>   1</c></rc>
    <rc><c>Si</c><c>   1</c></rc>
    <rc><c>Si</c><c>   1</c></rc>
    <rc><c>Ge</c><c>   2</c></rc>
    <rc><c>Ge</c><c>   2</c></rc>
    <rc><c>Ge</c><c>   2</c></rc>
    <rc><c>Ge</c><c>   2</c></rc>
    <rc><c>H </c><c>   3</c></rc>
    <rc><c>H </c><c>   3</c></rc>
    <rc><c>H </c><c>   3</c></rc>
    <rc><c>H </c><c>   3</c></rc>
    <rc><c>H </c><c>   3</c></rc>
    <rc><c>H </c><c>   3</c></rc>
    <rc><c>H </c><c>   3</c></rc>
    <rc><c>H </c><c>   3</c></rc>
    <rc><c>H </c><c>   3</c></rc>
    <rc><c>H </c><c>   3</c></rc>
    <rc><c>H </c><c>   3</c></rc>
    <rc><c>H </c><c>   3</c></rc>
    <rc><c>H </c><c>   3</c></rc>
    <rc><c>H </c><c>   3</c></rc>
    <rc><c>H </c><c>   3</c></rc>
    <rc><c>H </c><c>   3</c></rc>
   </set>
  </array>
  <array name="atomtypes" >
   <dimension dim="1">type</dimension>
   <field type="int">atomspertype</field>
   <field type="string">element</field>
   <field>mass</field>
   <field>valence</field>
   <field type="string">pseudopotential</field>
   <set>
    <rc><c>   6</c><c>Si</c><c>     28.08500000</c><c>      4.00000000</c><c>  PAW_PBE Si 05Jan2001                  </c></rc>
    <rc><c>   4</c><c>Ge</c><c>     72.61000000</c><c>      4.00000000</c><c>  PAW_PBE Ge 05Jan2001                  </c></rc>
    <rc><c>  16</c><c>H </c><c>      1.00000000</c><c>      1.00000000</c><c>  PAW_PBE H 15Jun2001                   </c></rc>
   </set>
  </array>
 </atominfo>
 <structure name="initialpos" >
  <crystal>
   <varray name="basis" >
    <v>      20.00000000       0.00000000       0.00000000 </v>
    <v>       0.00000000      20.00000000       0.00000000 </v>
    <v>       0.00000000       0.00000000      20.00000000 </v>
   </varray>
   <i name="volume">   8000.00000000 </i>
   <varray name="rec_basis" >
    <v>       0.05000000       0.00000000       0.00000000 </v>
    <v>       0.00000000       0.05000000       0.00000000 </v>
    <v>       0.00000000       0.00000000       0.05000000 </v>
   </varray>
  </crystal>
  <varray name="positions" >
   <v>       0.36849439       0.53909913       0.43610395 </v>
   <v>       0.54203076       0.45708859       0.39564349 </v>
   <v>       0.53130358       0.64849476       0.43719749 </v>
   <v>       0.61357376       0.52478550       0.56527267 </v>
   <v>       0.45076848       0.41537799       0.56417911 </v>
   <v>       0.44003906       0.60679128       0.60574173 </v>
   <v>       0.47539508       0.55637575       0.38409147 </v>
   <v>       0.38410808       0.51465766       0.55268258 </v>
   <v>       0.55769627       0.43262323       0.51220945 </v>
   <v>       0.54696077       0.62409452       0.55377672 </v>
   <v>       0.41590239       0.35750455       0.53191422 </v>
   <v>       0.46008825       0.39931791       0.63672462 </v>
   <v>       0.60105362       0.36803411       0.51970488 </v>
   <v>       0.68063139       0.53539504       0.53368649 </v>
   <v>       0.62424559       0.50964060       0.63782104 </v>
   <v>       0.60849697       0.46715403       0.36265779 </v>
   <v>       0.50792385       0.39955427       0.36198792 </v>
   <v>       0.46522530       0.57226877       0.30825055 </v>
   <v>       0.58333173       0.68403186       0.58830193 </v>
   <v>       0.44927020       0.59231010       0.67862971 </v>
   <v>       0.39844785       0.66873580       0.59949175 </v>
   <v>       0.31455839       0.50341993       0.58650703 </v>
   <v>       0.33294576       0.48223687       0.40278823 </v>
   <v>       0.32632000       0.60049345       0.42845252 </v>
   <v>       0.49047295       0.71078611       0.42954541 </v>
   <v>       0.59768551       0.66012820       0.40455424 </v>
  </varray>
 </structure>
 <calculation>
  <scstep>
   <time name="dav">   19.44   19.47</time>
   <time name="total">   21.30   21.33</time>
   <energy>
    <i name="alphaZ">      1.96423985 </i>
    <i name="ewald">   2631.24770404 </i>
    <i name="hartreedc">  -3437.96884689 </i>
    <i name="XCdc">    -52.84085896 </i>
    <i name="pawpsdc">    915.46801746 </i>
    <i name="pawaedc">   -752.10009045 </i>
    <i name="eentropy">     -0.39852876 </i>
    <i name="bandstr">   -297.98585530 </i>
    <i name="atom">   1238.03527989 </i>
    <i name="e_fr_energy">    245.42106088 </i>
    <i name="e_wo_entrp">    245.81958964 </i>
    <i name="e_0_energy">    245.62032526 </i>
   </energy>
  </scstep>
  <scstep>
   <time name="dav">   24.67   24.68</time>
   <time name="total">   24.67   24.68</time>
   <energy>
    <i name="e_fr_energy">    -23.74106609 </i>
    <i name="e_wo_entrp">    -23.74106609 </i>
    <i name="e_0_energy">    -23.74106609 </i>
   </energy>
  </scstep>
  <scstep>
   <time name="dav">   19.63   19.73</time>
   <time name="total">   19.63   19.73</time>
   <energy>
    <i name="e_fr_energy">   -104.23355242 </i>
    <i name="e_wo_entrp">   -104.23355242 </i>
    <i name="e_0_energy">   -104.23355242 </i>
   </energy>
  </scstep>
  <scstep>
   <time name="dav">   19.73   19.73</time>
   <time name="total">   19.73   19.73</time>
   <energy>
    <i name="e_fr_energy">   -108.23892938 </i>
    <i name="e_wo_entrp">   -108.23892938 </i>
    <i name="e_0_energy">   -108.23892938 </i>
   </energy>
  </scstep>
  <scstep>
   <time name="dav">   24.30   24.36</time>
   <time name="total">   24.87   24.92</time>
   <energy>
    <i name="e_fr_energy">   -108.32976030 </i>
    <i name="e_wo_entrp">   -108.32976030 </i>
    <i name="e_0_energy">   -108.32976030 </i>
   </energy>
  </scstep>
  <scstep>
   <time name="dav">   18.16   18.16</time>
   <time name="total">   20.50   20.51</time>
   <energy>
    <i name="e_fr_energy">   -104.64285255 </i>
    <i name="e_wo_entrp">   -104.64285255 </i>
    <i name="e_0_energy">   -104.64285255 </i>
   </energy>
  </scstep>
  <scstep>
   <time name="dav">   19.73   19.72</time>
   <time name="total">   22.08   22.08</time>
   <energy>
    <i name="e_fr_energy">   -102.77592867 </i>
    <i name="e_wo_entrp">   -102.77592867 </i>
    <i name="e_0_energy">   -102.77592867 </i>
   </energy>
  </scstep>
  <scstep>
   <time name="dav">   21.30   21.29</time>
   <time name="total">   23.66   23.65</time>
   <energy>
    <i name="e_fr_energy">   -102.72098488 </i>
    <i name="e_wo_entrp">   -102.72098488 </i>
    <i name="e_0_energy">   -102.72098488 </i>
   </energy>
  </scstep>
  <scstep>
   <time name="dav">   22.76   22.83</time>
   <time name="total">   25.13   25.24</time>
   <energy>
    <i name="e_fr_energy">   -102.68332052 </i>
    <i name="e_wo_entrp">   -102.68332052 </i>
    <i name="e_0_energy">   -102.68332052 </i>
   </energy>
  </scstep>
  <scstep>
   <time name="dav">   19.65   19.71</time>
   <time name="total">   22.02   22.09</time>
   <energy>
    <i name="e_fr_energy">   -102.68248650 </i>
    <i name="e_wo_entrp">   -102.68248650 </i>
    <i name="e_0_energy">   -102.68248650 </i>
   </energy>
  </scstep>
  <scstep>
   <time name="dav">   18.12   18.12</time>
   <time name="total">   20.50   20.50</time>
   <energy>
    <i name="e_fr_energy">   -102.68125510 </i>
    <i name="e_wo_entrp">   -102.68125510 </i>
    <i name="e_0_energy">   -102.68125510 </i>
   </energy>
  </scstep>
  <scstep>
   <time name="dav">   19.68   19.67</time>
   <time name="total">   22.08   22.07</time>
   <energy>
    <i name="e_fr_energy">   -102.68745184 </i>
    <i name="e_wo_entrp">   -102.68745184 </i>
    <i name="e_0_energy">   -102.68745184 </i>
   </energy>
  </scstep>
  <scstep>
   <time name="dav">   19.60   19.67</time>
   <time name="total">   21.99   22.06</time>
   <energy>
    <i name="e_fr_energy">   -102.69049193 </i>
    <i name="e_wo_entrp">   -102.69049193 </i>
    <i name="e_0_energy">   -102.69049193 </i>
   </energy>
  </scstep>
  <scstep>
   <time name="dav">   21.22   21.26</time>
   <time name="total">   23.60   23.65</time>
   <energy>
    <i name="e_fr_energy">   -102.69361814 </i>
    <i name="e_wo_entrp">   -102.69361814 </i>
    <i name="e_0_energy">   -102.69361814 </i>
   </energy>
  </scstep>
  <scstep>
   <time name="dav">   16.56   16.56</time>
   <time name="total">   19.01   19.01</time>
   <energy>
    <i name="e_fr_energy">   -102.69873825 </i>
    <i name="e_wo_entrp">   -102.69873825 </i>
    <i name="e_0_energy">   -102.69873825 </i>
   </energy>
  </scstep>
  <scstep>
   <time name="dav">   19.64   19.71</time>
   <time name="total">   22.06   22.12</time>
   <energy>
    <i name="e_fr_energy">   -102.70071925 </i>
    <i name="e_wo_entrp">   -102.70071925 </i>
    <i name="e_0_energy">   -102.70071925 </i>
   </energy>
  </scstep>
  <scstep>
   <time name="dav">   21.25   21.29</time>
   <time name="total">   23.66   23.70</time>
   <energy>
    <i name="e_fr_energy">   -102.70156939 </i>
    <i name="e_wo_entrp">   -102.70156939 </i>
    <i name="e_0_energy">   -102.70156939 </i>
   </energy>
  </scstep>
  <scstep>
   <time name="dav">   18.17   18.17</time>
   <time name="total">   20.61   20.61</time>
   <energy>
    <i name="e_fr_energy">   -102.70201979 </i>
    <i name="e_wo_entrp">   -102.70201979 </i>
    <i name="e_0_energy">   -102.70201979 </i>
   </energy>
  </scstep>
  <scstep>
   <time name="dav">   21.29   21.28</time>
   <time name="total">   23.74   23.74</time>
   <energy>
    <i name="e_fr_energy">   -102.70213406 </i>
    <i name="e_wo_entrp">   -102.70213406 </i>
    <i name="e_0_energy">   -102.70213406 </i>
   </energy>
  </scstep>
  <scstep>
   <time name="dav">   19.72   19.72</time>
   <time name="total">   22.18   22.17</time>
   <energy>
    <i name="e_fr_energy">   -102.70219338 </i>
    <i name="e_wo_entrp">   -102.70219338 </i>
    <i name="e_0_energy">   -102.70219338 </i>
   </energy>
  </scstep>
  <scstep>
   <time name="dav">   18.16   18.16</time>
   <time name="total">   20.64   20.64</time>
   <energy>
    <i name="e_fr_energy">   -102.70220576 </i>
    <i name="e_wo_entrp">   -102.70220576 </i>
    <i name="e_0_energy">   -102.70220576 </i>
   </energy>
  </scstep>
  <scstep>
   <time name="dav">   18.13   18.20</time>
   <time name="total">   20.60   20.67</time>
   <energy>
    <i name="e_fr_energy">   -102.70221765 </i>
    <i name="e_wo_entrp">   -102.70221765 </i>
    <i name="e_0_energy">   -102.70221765 </i>
   </energy>
  </scstep>
  <scstep>
   <time name="dav">   18.13   18.17</time>
   <time name="total">   20.61   20.65</time>
   <energy>
    <i name="e_fr_energy">   -102.70222325 </i>
    <i name="e_wo_entrp">   -102.70222325 </i>
    <i name="e_0_energy">   -102.70222325 </i>
   </energy>
  </scstep>
  <scstep>
   <time name="dav">   18.14   18.16</time>
   <time name="total">   20.66   20.70</time>
   <energy>
    <i name="e_fr_energy">   -102.70222629 </i>
    <i name="e_wo_entrp">   -102.70222629 </i>
    <i name="e_0_energy">   -102.70222629 </i>
   </energy>
  </scstep>
  <scstep>
   <time name="dav">   18.16   18.19</time>
   <time name="total">   20.68   20.72</time>
   <energy>
    <i name="e_fr_energy">   -102.70222731 </i>
    <i name="e_wo_entrp">   -102.70222731 </i>
    <i name="e_0_energy">   -102.70222731 </i>
   </energy>
  </scstep>
  <scstep>
   <time name="dav">   18.14   18.17</time>
   <time name="total">   19.95   19.98</time>
   <energy>
    <i name="alphaZ">      1.96423985 </i>
    <i name="ewald">   2631.24770404 </i>
    <i name="hartreedc">  -3565.63880218 </i>
    <i name="XCdc">    -42.02577336 </i>
    <i name="pawpsdc">   4143.33082907 </i>
    <i name="pawaedc">  -3981.68317150 </i>
    <i name="eentropy">     -0.00000000 </i>
    <i name="bandstr">   -527.93253364 </i>
    <i name="atom">   1238.03527989 </i>
    <i name="e_fr_energy">   -102.70222784 </i>
    <i name="e_wo_entrp">   -102.70222784 </i>
    <i name="e_0_energy">   -102.70222784 </i>
   </energy>
  </scstep>
  <structure>
   <crystal>
    <varray name="basis" >
     <v>      20.00000000       0.00000000       0.00000000 </v>
     <v>       0.00000000      20.00000000       0.00000000 </v>
     <v>       0.00000000       0.00000000      20.00000000 </v>
    </varray>
    <i name="volume">   8000.00000000 </i>
    <varray name="rec_basis" >
     <v>       0.05000000       0.00000000       0.00000000 </v>
     <v>       0.00000000       0.05000000       0.00000000 </v>
     <v>       0.00000000       0.00000000       0.05000000 </v>
    </varray>
   </crystal>
   <varray name="positions" >
    <v>       0.36849439       0.53909913       0.43610395 </v>
    <v>       0.54203076       0.45708859       0.39564349 </v>
    <v>       0.53130358       0.64849476       0.43719749 </v>
    <v>       0.61357376       0.52478550       0.56527267 </v>
    <v>       0.45076848       0.41537799       0.56417911 </v>
    <v>       0.44003906       0.60679128       0.60574173 </v>
    <v>       0.47539508       0.55637575       0.38409147 </v>
    <v>       0.38410808       0.51465766       0.55268258 </v>
    <v>       0.55769627       0.43262323       0.51220945 </v>
    <v>       0.54696077       0.62409452       0.55377672 </v>
    <v>       0.41590239       0.35750455       0.53191422 </v>
    <v>       0.46008825       0.39931791       0.63672462 </v>
    <v>       0.60105362       0.36803411       0.51970488 </v>
    <v>       0.68063139       0.53539504       0.53368649 </v>
    <v>       0.62424559       0.50964060       0.63782104 </v>
    <v>       0.60849697       0.46715403       0.36265779 </v>
    <v>       0.50792385       0.39955427       0.36198792 </v>
    <v>       0.46522530       0.57226877       0.30825055 </v>
    <v>       0.58333173       0.68403186       0.58830193 </v>
    <v>       0.44927020       0.59231010       0.67862971 </v>
    <v>       0.39844785       0.66873580       0.59949175 </v>
    <v>       0.31455839       0.50341993       0.58650703 </v>
    <v>       0.33294576       0.48223687       0.40278823 </v>
    <v>       0.32632000       0.60049345       0.42845252 </v>
    <v>       0.49047295       0.71078611       0.42954541 </v>
    <v>       0.59768551       0.66012820       0.40455424 </v>
   </varray>
  </structure>
  <varray name="forces" >
   <v>       0.00101842      -0.00095487       0.00016315 </v>
   <v>       0.00142449       0.00162054       0.00046260 </v>
   <v>       0.00209180      -0.00208584      -0.00066282 </v>
   <v>      -0.00049473       0.00029471      -0.00082347 </v>
   <v>       0.00123691       0.00162794       0.00220475 </v>
   <v>       0.00118193      -0.00251120       0.00114730 </v>
   <v>       0.00162328      -0.00242914       0.01218770 </v>
   <v>       0.01154011       0.00202127      -0.00510224 </v>
   <v>      -0.00700864       0.01052718      -0.00074754 </v>
   <v>      -0.00650499      -0.00972487      -0.00540523 </v>
   <v>      -0.00304405      -0.00719198       0.00095047 </v>
   <v>      -0.00205662      -0.00532390       0.00232756 </v>
   <v>      -0.00591031       0.00936002      -0.00085094 </v>
   <v>       0.00619949      -0.00014789       0.00260079 </v>
   <v>       0.00545885      -0.00042766       0.00436778 </v>
   <v>       0.00266663      -0.00293738      -0.00467938 </v>
   <v>       0.00109525      -0.00556601      -0.00573838 </v>
   <v>       0.00164190      -0.00251331       0.01096958 </v>
   <v>      -0.00505496      -0.00834172      -0.00484180 </v>
   <v>      -0.00234348       0.00309015       0.00396095 </v>
   <v>      -0.00392370       0.00544633       0.00450473 </v>
   <v>       0.01006732       0.00155704      -0.00495746 </v>
   <v>      -0.00608357      -0.00034219      -0.00336071 </v>
   <v>      -0.00629782       0.00231451      -0.00284982 </v>
   <v>      -0.00016327       0.00757327      -0.00317190 </v>
   <v>       0.00163975       0.00506498      -0.00265569 </v>
  </varray>
  <varray name="stress" >
   <v>      -0.17764015       0.00008258       0.00044628 </v>
   <v>       0.00008258      -0.17762471       0.00048422 </v>
   <v>       0.00044628       0.00048421      -0.17888201 </v>
  </varray>
  <energy>
   <i name="e_fr_energy">   -102.70222784 </i>
   <i name="e_wo_entrp">   -102.70222784 </i>
   <i name="e_0_energy">     -0.00000000 </i>
  </energy>
  <kpoints>
   <generation param="Gamma">
    <v type="int" name="divisions">       1        1        1 </v>
    <v name="usershift">      0.00000000       0.00000000       0.00000000 </v>
    <v name="genvec1">      1.00000000       0.00000000       0.00000000 </v>
    <v name="genvec2">      0.00000000       1.00000000       0.00000000 </v>
    <v name="genvec3">      0.00000000       0.00000000       1.00000000 </v>
    <v name="shift">      0.00000000       0.00000000       0.00000000 </v>
   </generation>
   <varray name="kpointlist" >
    <v>       0.00000000       0.00000000       0.00000000 </v>
   </varray>
   <varray name="weights" >
    <v>       1.00000000 </v>
   </varray>
  </kpoints>
  <time name="totalsc">  601.06  601.95</time>
 </calculation>
 <calculation>
  <scstep>
   <time name="dav">   16.56   16.56</time>
   <time name="total">   18.96   18.95</time>
   <energy>
    <i name="alphaZ">      1.96423985 </i>
    <i name="ewald">   2633.00543516 </i>
    <i name="hartreedc">  -3567.43802112 </i>
    <i name="XCdc">    -42.01990037 </i>
    <i name="pawpsdc">   4143.33475997 </i>
    <i name="pawaedc">  -3981.68710367 </i>
    <i name="eentropy">     -0.00000000 </i>
    <i name="bandstr">   -527.89248083 </i>
    <i name="atom">   1238.03527989 </i>
    <i name="e_fr_energy">   -102.69779113 </i>
    <i name="e_wo_entrp">   -102.69779113 </i>
    <i name="e_0_energy">   -102.69779113 </i>
   </energy>
  </scstep>
  <scstep>
   <time name="dav">   21.27   21.27</time>
   <time name="total">   23.60   23.64</time>
   <energy>
    <i name="e_fr_energy">   -102.69830618 </i>
    <i name="e_wo_entrp">   -102.69830618 </i>
    <i name="e_0_energy">   -102.69830618 </i>
   </energy>
  </scstep>
  <scstep>
   <time name="dav">   22.80   22.85</time>
   <time name="total">   25.17   25.24</time>
   <energy>
    <i name="e_fr_energy">   -102.69829186 </i>
    <i name="e_wo_entrp">   -102.69829186 </i>
    <i name="e_0_energy">   -102.69829186 </i>
   </energy>
  </scstep>
  <scstep>
   <time name="dav">   21.25   21.27</time>
   <time name="total">   23.61   23.64</time>
   <energy>
    <i name="e_fr_energy">   -102.69827660 </i>
    <i name="e_wo_entrp">   -102.69827660 </i>
    <i name="e_0_energy">   -102.69827660 </i>
   </energy>
  </scstep>
  <scstep>
   <time name="dav">   21.28   21.28</time>
   <time name="total">   23.65   23.64</time>
   <energy>
    <i name="e_fr_energy">   -102.69827426 </i>
    <i name="e_wo_entrp">   -102.69827426 </i>
    <i name="e_0_energy">   -102.69827426 </i>
   </energy>
  </scstep>
  <scstep>
   <time name="dav">   19.70   19.70</time>
   <time name="total">   22.07   22.09</time>
   <energy>
    <i name="e_fr_energy">   -102.69827640 </i>
    <i name="e_wo_entrp">   -102.69827640 </i>
    <i name="e_0_energy">   -102.69827640 </i>
   </energy>
  </scstep>
  <scstep>
   <time name="dav">   19.70   19.69</time>
   <time name="total">   22.07   22.06</time>
   <energy>
    <i name="e_fr_energy">   -102.69828570 </i>
    <i name="e_wo_entrp">   -102.69828570 </i>
    <i name="e_0_energy">   -102.69828570 </i>
   </energy>
  </scstep>
  <scstep>
   <time name="dav">   18.13   18.13</time>
   <time name="total">   20.52   20.52</time>
   <energy>
    <i name="e_fr_energy">   -102.69829807 </i>
    <i name="e_wo_entrp">   -102.69829807 </i>
    <i name="e_0_energy">   -102.69829807 </i>
   </energy>
  </scstep>
  <scstep>
   <time name="dav">   19.71   19.71</time>
   <time name="total">   22.10   22.10</time>
   <energy>
    <i name="e_fr_energy">   -102.69830570 </i>
    <i name="e_wo_entrp">   -102.69830570 </i>
    <i name="e_0_energy">   -102.69830570 </i>
   </energy>
  </scstep>
  <scstep>
   <time name="dav">   18.16   18.15</time>
   <time name="total">   20.55   20.55</time>
   <energy>
    <i name="e_fr_energy">   -102.69831319 </i>
    <i name="e_wo_entrp">   -102.69831319 </i>
    <i name="e_0_energy">   -102.69831319 </i>
   </energy>
  </scstep>
  <scstep>
   <time name="dav">   19.74   19.73</time>
   <time name="total">   22.14   22.14</time>
   <energy>
    <i name="e_fr_energy">   -102.69831558 </i>
    <i name="e_wo_entrp">   -102.69831558 </i>
    <i name="e_0_energy">   -102.69831558 </i>
   </energy>
  </scstep>
  <scstep>
   <time name="dav">   16.59   16.59</time>
   <time name="total">   19.01   19.01</time>
   <energy>
    <i name="e_fr_energy">   -102.69831853 </i>
    <i name="e_wo_entrp">   -102.69831853 </i>
    <i name="e_0_energy">   -102.69831853 </i>
   </energy>
  </scstep>
  <scstep>
   <time name="dav">   19.69   19.74</time>
   <time name="total">   21.48   21.54</time>
   <energy>
    <i name="alphaZ">      1.96423985 </i>
    <i name="ewald">   2633.00543516 </i>
    <i name="hartreedc">  -3567.25622958 </i>
    <i name="XCdc">    -42.03460460 </i>
    <i name="pawpsdc">   4141.66810447 </i>
    <i name="pawaedc">  -3980.02046361 </i>
    <i name="eentropy">     -0.00000000 </i>
    <i name="bandstr">   -528.06008098 </i>
    <i name="atom">   1238.03527989 </i>
    <i name="e_fr_energy">   -102.69831940 </i>
    <i name="e_wo_entrp">   -102.69831940 </i>
    <i name="e_0_energy">   -102.69831940 </i>
   </energy>
  </scstep>
  <structure>
   <crystal>
    <varray name="basis" >
     <v>      20.00000000       0.00000000       0.00000000 </v>
     <v>       0.00000000      20.00000000       0.00000000 </v>
     <v>       0.00000000       0.00000000      20.00000000 </v>
    </varray>
    <i name="volume">   8000.00000000 </i>
    <varray name="rec_basis" >
     <v>       0.05000000       0.00000000       0.00000000 </v>
     <v>       0.00000000       0.05000000       0.00000000 </v>
     <v>       0.00000000       0.00000000       0.05000000 </v>
    </varray>
   </crystal>
   <varray name="positions" >
    <v>       0.36949439       0.53909913       0.43610395 </v>
    <v>       0.54203076       0.45708859       0.39564349 </v>
    <v>       0.53130358       0.64849476       0.43719749 </v>
    <v>       0.61357376       0.52478550       0.56527267 </v>
    <v>       0.45076848       0.41537799       0.56417911 </v>
    <v>       0.44003906       0.60679128       0.60574173 </v>
    <v>       0.47539508       0.55637575       0.38409147 </v>
    <v>       0.38410808       0.51465766       0.55268258 </v>
    <v>       0.55769627       0.43262323       0.51220945 </v>
    <v>       0.54696077       0.62409452       0.55377672 </v>
    <v>       0.41590239       0.35750455       0.53191422 </v>
    <v>       0.46008825       0.39931791       0.63672462 </v>
    <v>       0.60105362       0.36803411       0.51970488 </v>
    <v>       0.68063139       0.53539504       0.53368649 </v>
    <v>       0.62424559       0.50964060       0.63782104 </v>
    <v>       0.60849697       0.46715403       0.36265779 </v>
    <v>       0.50792385       0.39955427       0.36198792 </v>
    <v>       0.46522530       0.57226877       0.30825055 </v>
    <v>       0.58333173       0.68403186       0.58830193 </v>
    <v>       0.44927020       0.59231010       0.67862971 </v>
    <v>       0.39844785       0.66873580       0.59949175 </v>
    <v>       0.31455839       0.50341993       0.58650703 </v>
    <v>       0.33294576       0.48223687       0.40278823 </v>
    <v>       0.32632000       0.60049345       0.42845252 </v>
    <v>       0.49047295       0.71078611       0.42954541 </v>
    <v>       0.59768551       0.66012820       0.40455424 </v>
   </varray>
  </structure>
  <varray name="forces" >
   <v>      -0.39304106       0.01309763      -0.04437834 </v>
   <v>       0.00817394      -0.00121991       0.00042701 </v>
   <v>       0.00724276       0.00141039       0.00152122 </v>
   <v>       0.00023128       0.00035963      -0.00136099 </v>
   <v>       0.00031100       0.00283275       0.01031143 </v>
   <v>       0.00054299      -0.00631231       0.00666737 </v>
   <v>       0.13840229       0.01704190      -0.04897414 </v>
   <v>       0.04148191      -0.00262427       0.01708535 </v>
   <v>      -0.00798164       0.01047801       0.00126067 </v>
   <v>      -0.00729590      -0.01072229      -0.00353265 </v>
   <v>      -0.00279942      -0.00692298       0.00043324 </v>
   <v>       0.00007020      -0.00790300       0.00218538 </v>
   <v>      -0.00579414       0.00975273      -0.00203740 </v>
   <v>       0.00621395      -0.00011679       0.00261566 </v>
   <v>       0.00511719      -0.00036133       0.00412676 </v>
   <v>       0.00160579      -0.00212912      -0.00495738 </v>
   <v>       0.00014657      -0.00406499      -0.00603482 </v>
   <v>      -0.00300874      -0.00395749       0.01619297 </v>
   <v>      -0.00496168      -0.00815965      -0.00609370 </v>
   <v>      -0.00078058       0.00524698       0.00473222 </v>
   <v>      -0.00363671       0.00536168       0.00400857 </v>
   <v>       0.00954730       0.00501240      -0.02123499 </v>
   <v>       0.09309857       0.09265225       0.05697917 </v>
   <v>       0.11754487      -0.11882332       0.01774161 </v>
   <v>      -0.00085866       0.00618379      -0.00413131 </v>
   <v>       0.00042794       0.00388729      -0.00355288 </v>
  </varray>
  <varray name="stress" >
   <v>      -0.15013524       0.01328521      -0.02721554 </v>
   <v>       0.01328521      -0.22804303      -0.01372231 </v>
   <v>      -0.02721554      -0.01372232      -0.16858666 </v>
  </varray>
  <energy>
   <i name="e_fr_energy">   -102.69831940 </i>
   <i name="e_wo_entrp">   -102.69831940 </i>
   <i name="e_0_energy">     -0.00000000 </i>
  </energy>
  <kpoints>
   <generation param="Gamma">
    <v type="int" name="divisions">       1        1        1 </v>
    <v name="usershift">      0.00000000       0.00000000       0.00000000 </v>
    <v name="genvec1">      1.00000000       0.00000000       0.00000000 </v>
    <v name="genvec2">      0.00000000       1.00000000       0.00000000 </v>
    <v name="genvec3">      0.00000000       0.00000000       1.00000000 </v>
    <v name="shift">      0.00000000       0.00000000       0.00000000 </v>
   </generation>
   <varray name="kpointlist" >
    <v>       0.00000000       0.00000000       0.00000000 </v>
   </varray>
   <varray name="weights" >
    <v>       1.00000000 </v>
   </varray>
  </kpoints>
  <time name="totalsc">  319.85  320.10</time>
 </calculation>
 <calculation>
  <scstep>
   <time name="dav">   16.61   16.61</time>
   <time name="total">   18.97   18.97</time>
   <energy>
    <i name="alphaZ">      1.96423985 </i>
    <i name="ewald">   2629.49519523 </i>
    <i name="hartreedc">  -3563.65521213 </i>
    <i name="XCdc">    -42.04651021 </i>
    <i name="pawpsdc">   4141.66799868 </i>
    <i name="pawaedc">  -3980.02035839 </i>
    <i name="eentropy">     -0.00000000 </i>
    <i name="bandstr">   -528.13691333 </i>
    <i name="atom">   1238.03527989 </i>
    <i name="e_fr_energy">   -102.69628041 </i>
    <i name="e_wo_entrp">   -102.69628041 </i>
    <i name="e_0_energy">   -102.69628041 </i>
   </energy>
  </scstep>
  <scstep>
   <time name="dav">   21.30   21.30</time>
   <time name="total">   23.68   23.68</time>
   <energy>
    <i name="e_fr_energy">   -102.69829658 </i>
    <i name="e_wo_entrp">   -102.69829658 </i>
    <i name="e_0_energy">   -102.69829658 </i>
   </energy>
  </scstep>
  <scstep>
   <time name="dav">   22.81   22.81</time>
   <time name="total">   25.19   25.18</time>
   <energy>
    <i name="e_fr_energy">   -102.69825369 </i>
    <i name="e_wo_entrp">   -102.69825369 </i>
    <i name="e_0_energy">   -102.69825369 </i>
   </energy>
  </scstep>
  <scstep>
   <time name="dav">   21.20   21.24</time>
   <time name="total">   23.58   23.64</time>
   <energy>
    <i name="e_fr_energy">   -102.69822984 </i>
    <i name="e_wo_entrp">   -102.69822984 </i>
    <i name="e_0_energy">   -102.69822984 </i>
   </energy>
  </scstep>
  <scstep>
   <time name="dav">   22.78   22.83</time>
   <time name="total">   25.15   25.20</time>
   <energy>
    <i name="e_fr_energy">   -102.69822096 </i>
    <i name="e_wo_entrp">   -102.69822096 </i>
    <i name="e_0_energy">   -102.69822096 </i>
   </energy>
  </scstep>
  <scstep>
   <time name="dav">   21.22   21.27</time>
   <time name="total">   23.01   23.06</time>
   <energy>
    <i name="alphaZ">      1.96423985 </i>
    <i name="ewald">   2629.49519523 </i>
    <i name="hartreedc">  -3563.95364263 </i>
    <i name="XCdc">    -42.01891873 </i>
    <i name="pawpsdc">   4145.26508522 </i>
    <i name="pawaedc">  -3983.61788050 </i>
    <i name="eentropy">     -0.00000000 </i>
    <i name="bandstr">   -527.86758007 </i>
    <i name="atom">   1238.03527989 </i>
    <i name="e_fr_energy">   -102.69822175 </i>
    <i name="e_wo_entrp">   -102.69822175 </i>
    <i name="e_0_energy">   -102.69822175 </i>
   </energy>
  </scstep>
  <structure>
   <crystal>
    <varray name="basis" >
     <v>      20.00000000       0.00000000       0.00000000 </v>
     <v>       0.00000000      20.00000000       0.00000000 </v>
     <v>       0.00000000       0.00000000      20.00000000 </v>
    </varray>
    <i name="volume">   8000.00000000 </i>
    <varray name="rec_basis" >
     <v>       0.05000000       0.00000000       0.00000000 </v>
     <v>       0.00000000       0.05000000       0.00000000 </v>
     <v>       0.00000000       0.00000000       0.05000000 </v>
    </varray>
   </crystal>
   <varray name="positions" >
    <v>       0.36749439       0.53909913       0.43610395 </v>
    <v>       0.54203076       0.45708859       0.39564349 </v>
    <v>       0.53130358       0.64849476       0.43719749 </v>
    <v>       0.61357376       0.52478550       0.56527267 </v>
    <v>       0.45076848       0.41537799       0.56417911 </v>
    <v>       0.44003906       0.60679128       0.60574173 </v>
    <v>       0.47539508       0.55637575       0.38409147 </v>
    <v>       0.38410808       0.51465766       0.55268258 </v>
    <v>       0.55769627       0.43262323       0.51220945 </v>
    <v>       0.54696077       0.62409452       0.55377672 </v>
    <v>       0.41590239       0.35750455       0.53191422 </v>
    <v>       0.46008825       0.39931791       0.63672462 </v>
    <v>       0.60105362       0.36803411       0.51970488 </v>
    <v>       0.68063139       0.53539504       0.53368649 </v>
    <v>       0.62424559       0.50964060       0.63782104 </v>
    <v>       0.60849697       0.46715403       0.36265779 </v>
    <v>       0.50792385       0.39955427       0.36198792 </v>
    <v>       0.46522530       0.57226877       0.30825055 </v>
    <v>       0.58333173       0.68403186       0.58830193 </v>
    <v>       0.44927020       0.59231010       0.67862971 </v>
    <v>       0.39844785       0.66873580       0.59949175 </v>
    <v>       0.31455839       0.50341993       0.58650703 </v>
    <v>       0.33294576       0.48223687       0.40278823 </v>
    <v>       0.32632000       0.60049345       0.42845252 </v>
    <v>       0.49047295       0.71078611       0.42954541 </v>
    <v>       0.59768551       0.66012820       0.40455424 </v>
   </varray>
  </structure>
  <varray name="forces" >
   <v>       0.38762864      -0.02071603       0.05498223 </v>
   <v>      -0.00504992       0.00464053       0.00026315 </v>
   <v>      -0.00283402      -0.00562270      -0.00311679 </v>
   <v>      -0.00111351       0.00023229      -0.00028840 </v>
   <v>       0.00166891       0.00034683      -0.00561504 </v>
   <v>       0.00131853       0.00118541      -0.00411987 </v>
   <v>      -0.12750453      -0.02028876       0.06851510 </v>
   <v>      -0.01855371       0.00695016      -0.02837246 </v>
   <v>      -0.00612381       0.01040544      -0.00268462 </v>
   <v>      -0.00583245      -0.00863630      -0.00715437 </v>
   <v>      -0.00311494      -0.00739468       0.00152611 </v>
   <v>      -0.00402160      -0.00284407       0.00229035 </v>
   <v>      -0.00601421       0.00907877       0.00031592 </v>
   <v>       0.00613232      -0.00019653       0.00265024 </v>
   <v>       0.00579021      -0.00045060       0.00441375 </v>
   <v>       0.00372438      -0.00401893      -0.00433963 </v>
   <v>       0.00219615      -0.00691598      -0.00538049 </v>
   <v>       0.00653164      -0.00108334       0.00584971 </v>
   <v>      -0.00510966      -0.00858984      -0.00364155 </v>
   <v>      -0.00376044       0.00110640       0.00308785 </v>
   <v>      -0.00402954       0.00547051       0.00504687 </v>
   <v>       0.01073144      -0.00192684       0.01147056 </v>
   <v>      -0.10456438      -0.09819236      -0.06699380 </v>
   <v>      -0.13167737       0.13217514      -0.02487526 </v>
   <v>       0.00071912       0.00881812      -0.00221911 </v>
   <v>       0.00286275       0.00646740      -0.00161044 </v>
  </varray>
  <varray name="stress" >
   <v>      -0.20273086      -0.01324709       0.02701259 </v>
   <v>      -0.01324708      -0.12332597       0.01498386 </v>
   <v>       0.02701258       0.01498384      -0.18826183 </v>
  </varray>
  <energy>
   <i name="e_fr_energy">   -102.69822175 </i>
   <i name="e_wo_entrp">   -102.69822175 </i>
   <i name="e_0_energy">     -0.00000000 </i>
  </energy>
  <kpoints>
   <generation param="Gamma">
    <v type="int" name="divisions">       1        1        1 </v>
    <v name="usershift">      0.00000000       0.00000000       0.00000000 </v>
    <v name="genvec1">      1.00000000       0.00000000       0.00000000 </v>
    <v name="genvec2">      0.00000000       1.00000000       0.00000000 </v>
    <v name="genvec3">      0.00000000       0.00000000       1.00000000 </v>
    <v name="shift">      0.00000000       0.00000000       0.00000000 </v>
   </generation>
   <varray name="kpointlist" >
    <v>       0.00000000       0.00000000       0.00000000 </v>
   </varray>
   <varray name="weights" >
    <v>       1.00000000 </v>
   </varray>
  </kpoints>
  <time name="totalsc">  174.28  174.55</time>
 </calculation>
 <calculation>
  <scstep>
   <time name="dav">   16.57   16.59</time>
   <time name="total">   18.90   18.94</time>
   <energy>
    <i name="alphaZ">      1.96423985 </i>
    <i name="ewald">   2631.14310342 </i>
    <i name="hartreedc">  -3565.66319351 </i>
    <i name="XCdc">    -42.01263448 </i>
    <i name="pawpsdc">   4145.21112375 </i>
    <i name="pawaedc">  -3983.56378435 </i>
    <i name="eentropy">     -0.00000000 </i>
    <i name="bandstr">   -527.81015953 </i>
    <i name="atom">   1238.03527989 </i>
    <i name="e_fr_energy">   -102.69602497 </i>
    <i name="e_wo_entrp">   -102.69602497 </i>
    <i name="e_0_energy">   -102.69602497 </i>
   </energy>
  </scstep>
  <scstep>
   <time name="dav">   21.26   21.29</time>
   <time name="total">   23.62   23.65</time>
   <energy>
    <i name="e_fr_energy">   -102.69724450 </i>
    <i name="e_wo_entrp">   -102.69724450 </i>
    <i name="e_0_energy">   -102.69724450 </i>
   </energy>
  </scstep>
  <scstep>
   <time name="dav">   21.27   21.28</time>
   <time name="total">   23.64   23.65</time>
   <energy>
    <i name="e_fr_energy">   -102.69723535 </i>
    <i name="e_wo_entrp">   -102.69723535 </i>
    <i name="e_0_energy">   -102.69723535 </i>
   </energy>
  </scstep>
  <scstep>
   <time name="dav">   19.70   19.71</time>
   <time name="total">   22.07   22.07</time>
   <energy>
    <i name="e_fr_energy">   -102.69726154 </i>
    <i name="e_wo_entrp">   -102.69726154 </i>
    <i name="e_0_energy">   -102.69726154 </i>
   </energy>
  </scstep>
  <scstep>
   <time name="dav">   21.27   21.27</time>
   <time name="total">   23.64   23.64</time>
   <energy>
    <i name="e_fr_energy">   -102.69725946 </i>
    <i name="e_wo_entrp">   -102.69725946 </i>
    <i name="e_0_energy">   -102.69725946 </i>
   </energy>
  </scstep>
  <scstep>
   <time name="dav">   21.26   21.26</time>
   <time name="total">   23.65   23.65</time>
   <energy>
    <i name="e_fr_energy">   -102.69726107 </i>
    <i name="e_wo_entrp">   -102.69726107 </i>
    <i name="e_0_energy">   -102.69726107 </i>
   </energy>
  </scstep>
  <scstep>
   <time name="dav">   18.15   18.16</time>
   <time name="total">   20.52   20.53</time>
   <energy>
    <i name="e_fr_energy">   -102.69726961 </i>
    <i name="e_wo_entrp">   -102.69726961 </i>
    <i name="e_0_energy">   -102.69726961 </i>
   </energy>
  </scstep>
  <scstep>
   <time name="dav">   21.26   21.26</time>
   <time name="total">   23.64   23.64</time>
   <energy>
    <i name="e_fr_energy">   -102.69728163 </i>
    <i name="e_wo_entrp">   -102.69728163 </i>
    <i name="e_0_energy">   -102.69728163 </i>
   </energy>
  </scstep>
  <scstep>
   <time name="dav">   18.16   18.17</time>
   <time name="total">   20.55   20.60</time>
   <energy>
    <i name="e_fr_energy">   -102.69728996 </i>
    <i name="e_wo_entrp">   -102.69728996 </i>
    <i name="e_0_energy">   -102.69728996 </i>
   </energy>
  </scstep>
  <scstep>
   <time name="dav">   16.56   16.60</time>
   <time name="total">   18.95   19.00</time>
   <energy>
    <i name="e_fr_energy">   -102.69729879 </i>
    <i name="e_wo_entrp">   -102.69729879 </i>
    <i name="e_0_energy">   -102.69729879 </i>
   </energy>
  </scstep>
  <scstep>
   <time name="dav">   18.09   18.15</time>
   <time name="total">   20.49   20.55</time>
   <energy>
    <i name="e_fr_energy">   -102.69730285 </i>
    <i name="e_wo_entrp">   -102.69730285 </i>
    <i name="e_0_energy">   -102.69730285 </i>
   </energy>
  </scstep>
  <scstep>
   <time name="dav">   16.60   16.60</time>
   <time name="total">   19.06   19.06</time>
   <energy>
    <i name="e_fr_energy">   -102.69730607 </i>
    <i name="e_wo_entrp">   -102.69730607 </i>
    <i name="e_0_energy">   -102.69730607 </i>
   </energy>
  </scstep>
  <scstep>
   <time name="dav">   18.13   18.17</time>
   <time name="total">   20.55   20.59</time>
   <energy>
    <i name="e_fr_energy">   -102.69730783 </i>
    <i name="e_wo_entrp">   -102.69730783 </i>
    <i name="e_0_energy">   -102.69730783 </i>
   </energy>
  </scstep>
  <scstep>
   <time name="dav">   16.58   16.60</time>
   <time name="total">   19.04   19.07</time>
   <energy>
    <i name="e_fr_energy">   -102.69730909 </i>
    <i name="e_wo_entrp">   -102.69730909 </i>
    <i name="e_0_energy">   -102.69730909 </i>
   </energy>
  </scstep>
  <scstep>
   <time name="dav">   18.17   18.17</time>
   <time name="total">   19.95   19.98</time>
   <energy>
    <i name="alphaZ">      1.96423985 </i>
    <i name="ewald">   2631.14310342 </i>
    <i name="hartreedc">  -3565.53510342 </i>
    <i name="XCdc">    -42.02534280 </i>
    <i name="pawpsdc">   4143.50725316 </i>
    <i name="pawaedc">  -3981.85972871 </i>
    <i name="eentropy">     -0.00000000 </i>
    <i name="bandstr">   -527.92701083 </i>
    <i name="atom">   1238.03527989 </i>
    <i name="e_fr_energy">   -102.69730944 </i>
    <i name="e_wo_entrp">   -102.69730944 </i>
    <i name="e_0_energy">   -102.69730944 </i>
   </energy>
  </scstep>
  <structure>
   <crystal>
    <varray name="basis" >
     <v>      20.00000000       0.00000000       0.00000000 </v>
     <v>       0.00000000      20.00000000       0.00000000 </v>
     <v>       0.00000000       0.00000000      20.00000000 </v>
    </varray>
    <i name="volume">   8000.00000000 </i>
    <varray name="rec_basis" >
     <v>       0.05000000       0.00000000       0.00000000 </v>
     <v>       0.00000000       0.05000000       0.00000000 </v>
     <v>       0.00000000       0.00000000       0.05000000 </v>
    </varray>
   </crystal>
   <varray name="positions" >
    <v>       0.36849439       0.54009913       0.43610395 </v>
    <v>       0.54203076       0.45708859       0.39564349 </v>
    <v>       0.53130358       0.64849476       0.43719749 </v>
    <v>       0.61357376       0.52478550       0.56527267 </v>
    <v>       0.45076848       0.41537799       0.56417911 </v>
    <v>       0.44003906       0.60679128       0.60574173 </v>
    <v>       0.47539508       0.55637575       0.38409147 </v>
    <v>       0.38410808       0.51465766       0.55268258 </v>
    <v>       0.55769627       0.43262323       0.51220945 </v>
    <v>       0.54696077       0.62409452       0.55377672 </v>
    <v>       0.41590239       0.35750455       0.53191422 </v>
    <v>       0.46008825       0.39931791       0.63672462 </v>
    <v>       0.60105362       0.36803411       0.51970488 </v>
    <v>       0.68063139       0.53539504       0.53368649 </v>
    <v>       0.62424559       0.50964060       0.63782104 </v>
    <v>       0.60849697       0.46715403       0.36265779 </v>
    <v>       0.50792385       0.39955427       0.36198792 </v>
    <v>       0.46522530       0.57226877       0.30825055 </v>
    <v>       0.58333173       0.68403186       0.58830193 </v>
    <v>       0.44927020       0.59231010       0.67862971 </v>
    <v>       0.39844785       0.66873580       0.59949175 </v>
    <v>       0.31455839       0.50341993       0.58650703 </v>
    <v>       0.33294576       0.48223687       0.40278823 </v>
    <v>       0.32632000       0.60049345       0.42845252 </v>
    <v>       0.49047295       0.71078611       0.42954541 </v>
    <v>       0.59768551       0.66012820       0.40455424 </v>
   </varray>
  </structure>
  <varray name="forces" >
   <v>       0.03000793      -0.49161761      -0.03379092 </v>
   <v>      -0.00924095      -0.00601368       0.00772070 </v>
   <v>       0.01284935      -0.00274085      -0.00684816 </v>
   <v>      -0.00043553       0.00196541      -0.00078996 </v>
   <v>       0.00012717       0.00177714      -0.01074400 </v>
   <v>       0.00038072      -0.01059274       0.01299018 </v>
   <v>       0.01685519       0.02773995       0.00321697 </v>
   <v>       0.00947135       0.03526468      -0.03143625 </v>
   <v>      -0.00636069       0.01113531       0.00091559 </v>
   <v>      -0.00820149      -0.00893358      -0.00497189 </v>
   <v>      -0.00256674      -0.00707251       0.00179851 </v>
   <v>      -0.00426697      -0.00177465       0.00232175 </v>
   <v>      -0.00596078       0.00928595      -0.00151774 </v>
   <v>       0.00633720      -0.00065175       0.00252316 </v>
   <v>       0.00541686      -0.00092152       0.00419748 </v>
   <v>      -0.00052121       0.00241644      -0.00566564 </v>
   <v>       0.00174743      -0.00455433      -0.00610421 </v>
   <v>       0.00427526      -0.00126127       0.00996288 </v>
   <v>      -0.00444356      -0.00844318      -0.00515006 </v>
   <v>       0.00070666       0.00797488       0.00630529 </v>
   <v>      -0.00388501       0.00655377       0.00385215 </v>
   <v>       0.00946848       0.00269540      -0.00627182 </v>
   <v>       0.09373147       0.19022106       0.09025230 </v>
   <v>      -0.14764893       0.23133449      -0.02898639 </v>
   <v>      -0.00108341       0.00786463      -0.00305531 </v>
   <v>       0.00324020       0.00834856      -0.00072459 </v>
  </varray>
  <varray name="stress" >
   <v>      -0.16289131      -0.04541201      -0.01199925 </v>
   <v>      -0.04541201      -0.16869718      -0.02014756 </v>
   <v>      -0.01199926      -0.02014756      -0.19865433 </v>
  </varray>
  <energy>
   <i name="e_fr_energy">   -102.69730944 </i>
   <i name="e_wo_entrp">   -102.69730944 </i>
   <i name="e_0_energy">     -0.00000000 </i>
  </energy>
  <kpoints>
   <generation param="Gamma">
    <v type="int" name="divisions">       1        1        1 </v>
    <v name="usershift">      0.00000000       0.00000000       0.00000000 </v>
    <v name="genvec1">      1.00000000       0.00000000       0.00000000 </v>
    <v name="genvec2">      0.00000000       1.00000000       0.00000000 </v>
    <v name="genvec3">      0.00000000       0.00000000       1.00000000 </v>
    <v name="shift">      0.00000000       0.00000000       0.00000000 </v>
   </generation>
   <varray name="kpointlist" >
    <v>       0.00000000       0.00000000       0.00000000 </v>
   </varray>
   <varray name="weights" >
    <v>       1.00000000 </v>
   </varray>
  </kpoints>
  <time name="totalsc">  353.23  353.65</time>
 </calculation>
 <calculation>
  <scstep>
   <time name="dav">   16.51   16.58</time>
   <time name="total">   18.89   18.96</time>
   <energy>
    <i name="alphaZ">      1.96423985 </i>
    <i name="ewald">   2631.34899981 </i>
    <i name="hartreedc">  -3565.74640344 </i>
    <i name="XCdc">    -42.02454697 </i>
    <i name="pawpsdc">   4143.50562813 </i>
    <i name="pawaedc">  -3981.85810360 </i>
    <i name="eentropy">     -0.00000000 </i>
    <i name="bandstr">   -527.91994923 </i>
    <i name="atom">   1238.03527989 </i>
    <i name="e_fr_energy">   -102.69485556 </i>
    <i name="e_wo_entrp">   -102.69485556 </i>
    <i name="e_0_energy">   -102.69485556 </i>
   </energy>
  </scstep>
  <scstep>
   <time name="dav">   21.20   21.28</time>
   <time name="total">   23.56   23.64</time>
   <energy>
    <i name="e_fr_energy">   -102.69740683 </i>
    <i name="e_wo_entrp">   -102.69740683 </i>
    <i name="e_0_energy">   -102.69740683 </i>
   </energy>
  </scstep>
  <scstep>
   <time name="dav">   22.85   22.85</time>
   <time name="total">   25.24   25.25</time>
   <energy>
    <i name="e_fr_energy">   -102.69726332 </i>
    <i name="e_wo_entrp">   -102.69726332 </i>
    <i name="e_0_energy">   -102.69726332 </i>
   </energy>
  </scstep>
  <scstep>
   <time name="dav">   19.72   19.71</time>
   <time name="total">   22.09   22.09</time>
   <energy>
    <i name="e_fr_energy">   -102.69727483 </i>
    <i name="e_wo_entrp">   -102.69727483 </i>
    <i name="e_0_energy">   -102.69727483 </i>
   </energy>
  </scstep>
  <scstep>
   <time name="dav">   21.29   21.28</time>
   <time name="total">   23.66   23.65</time>
   <energy>
    <i name="e_fr_energy">   -102.69726295 </i>
    <i name="e_wo_entrp">   -102.69726295 </i>
    <i name="e_0_energy">   -102.69726295 </i>
   </energy>
  </scstep>
  <scstep>
   <time name="dav">   21.25   21.25</time>
   <time name="total">   23.64   23.64</time>
   <energy>
    <i name="e_fr_energy">   -102.69726866 </i>
    <i name="e_wo_entrp">   -102.69726866 </i>
    <i name="e_0_energy">   -102.69726866 </i>
   </energy>
  </scstep>
  <scstep>
   <time name="dav">   19.74   19.74</time>
   <time name="total">   22.11   22.11</time>
   <energy>
    <i name="e_fr_energy">   -102.69729045 </i>
    <i name="e_wo_entrp">   -102.69729045 </i>
    <i name="e_0_energy">   -102.69729045 </i>
   </energy>
  </scstep>
  <scstep>
   <time name="dav">   21.29   21.28</time>
   <time name="total">   23.69   23.68</time>
   <energy>
    <i name="e_fr_energy">   -102.69732309 </i>
    <i name="e_wo_entrp">   -102.69732309 </i>
    <i name="e_0_energy">   -102.69732309 </i>
   </energy>
  </scstep>
  <scstep>
   <time name="dav">   21.32   21.32</time>
   <time name="total">   23.71   23.72</time>
   <energy>
    <i name="e_fr_energy">   -102.69734146 </i>
    <i name="e_wo_entrp">   -102.69734146 </i>
    <i name="e_0_energy">   -102.69734146 </i>
   </energy>
  </scstep>
  <scstep>
   <time name="dav">   18.19   18.18</time>
   <time name="total">   20.57   20.56</time>
   <energy>
    <i name="e_fr_energy">   -102.69736066 </i>
    <i name="e_wo_entrp">   -102.69736066 </i>
    <i name="e_0_energy">   -102.69736066 </i>
   </energy>
  </scstep>
  <scstep>
   <time name="dav">   18.18   18.18</time>
   <time name="total">   20.58   20.57</time>
   <energy>
    <i name="e_fr_energy">   -102.69736597 </i>
    <i name="e_wo_entrp">   -102.69736597 </i>
    <i name="e_0_energy">   -102.69736597 </i>
   </energy>
  </scstep>
  <scstep>
   <time name="dav">   16.60   16.60</time>
   <time name="total">   19.03   19.03</time>
   <energy>
    <i name="e_fr_energy">   -102.69737367 </i>
    <i name="e_wo_entrp">   -102.69737367 </i>
    <i name="e_0_energy">   -102.69737367 </i>
   </energy>
  </scstep>
  <scstep>
   <time name="dav">   18.14   18.18</time>
   <time name="total">   20.57   20.62</time>
   <energy>
    <i name="e_fr_energy">   -102.69737633 </i>
    <i name="e_wo_entrp">   -102.69737633 </i>
    <i name="e_0_energy">   -102.69737633 </i>
   </energy>
  </scstep>
  <scstep>
   <time name="dav">   16.61   16.62</time>
   <time name="total">   19.05   19.06</time>
   <energy>
    <i name="e_fr_energy">   -102.69737869 </i>
    <i name="e_wo_entrp">   -102.69737869 </i>
    <i name="e_0_energy">   -102.69737869 </i>
   </energy>
  </scstep>
  <scstep>
   <time name="dav">   18.13   18.17</time>
   <time name="total">   19.94   19.99</time>
   <energy>
    <i name="alphaZ">      1.96423985 </i>
    <i name="ewald">   2631.34899981 </i>
    <i name="hartreedc">  -3565.72506602 </i>
    <i name="XCdc">    -42.02633919 </i>
    <i name="pawpsdc">   4143.30375113 </i>
    <i name="pawaedc">  -3981.65621445 </i>
    <i name="eentropy">     -0.00000000 </i>
    <i name="bandstr">   -527.94203037 </i>
    <i name="atom">   1238.03527989 </i>
    <i name="e_fr_energy">   -102.69737934 </i>
    <i name="e_wo_entrp">   -102.69737934 </i>
    <i name="e_0_energy">   -102.69737934 </i>
   </energy>
  </scstep>
  <structure>
   <crystal>
    <varray name="basis" >
     <v>      20.00000000       0.00000000       0.00000000 </v>
     <v>       0.00000000      20.00000000       0.00000000 </v>
     <v>       0.00000000       0.00000000      20.00000000 </v>
    </varray>
    <i name="volume">   8000.00000000 </i>
    <varray name="rec_basis" >
     <v>       0.05000000       0.00000000       0.00000000 </v>
     <v>       0.00000000       0.05000000       0.00000000 </v>
     <v>       0.00000000       0.00000000       0.05000000 </v>
    </varray>
   </crystal>
   <varray name="positions" >
    <v>       0.36849439       0.53809913       0.43610395 </v>
    <v>       0.54203076       0.45708859       0.39564349 </v>
    <v>       0.53130358       0.64849476       0.43719749 </v>
    <v>       0.61357376       0.52478550       0.56527267 </v>
    <v>       0.45076848       0.41537799       0.56417911 </v>
    <v>       0.44003906       0.60679128       0.60574173 </v>
    <v>       0.47539508       0.55637575       0.38409147 </v>
    <v>       0.38410808       0.51465766       0.55268258 </v>
    <v>       0.55769627       0.43262323       0.51220945 </v>
    <v>       0.54696077       0.62409452       0.55377672 </v>
    <v>       0.41590239       0.35750455       0.53191422 </v>
    <v>       0.46008825       0.39931791       0.63672462 </v>
    <v>       0.60105362       0.36803411       0.51970488 </v>
    <v>       0.68063139       0.53539504       0.53368649 </v>
    <v>       0.62424559       0.50964060       0.63782104 </v>
    <v>       0.60849697       0.46715403       0.36265779 </v>
    <v>       0.50792385       0.39955427       0.36198792 </v>
    <v>       0.46522530       0.57226877       0.30825055 </v>
    <v>       0.58333173       0.68403186       0.58830193 </v>
    <v>       0.44927020       0.59231010       0.67862971 </v>
    <v>       0.39844785       0.66873580       0.59949175 </v>
    <v>       0.31455839       0.50341993       0.58650703 </v>
    <v>       0.33294576       0.48223687       0.40278823 </v>
    <v>       0.32632000       0.60049345       0.42845252 </v>
    <v>       0.49047295       0.71078611       0.42954541 </v>
    <v>       0.59768551       0.66012820       0.40455424 </v>
   </varray>
  </structure>
  <varray name="forces" >
   <v>      -0.00378212       0.48515450       0.04576619 </v>
   <v>       0.01211014       0.00921308      -0.00672379 </v>
   <v>      -0.00856690      -0.00138321       0.00556537 </v>
   <v>      -0.00054728      -0.00135849      -0.00085409 </v>
   <v>       0.00244503       0.00143363       0.01523516 </v>
   <v>       0.00206206       0.00562485      -0.01073466 </v>
   <v>      -0.01450865      -0.03280100       0.02119050 </v>
   <v>       0.01315054      -0.03075969       0.02080472 </v>
   <v>      -0.00766228       0.00994058      -0.00240399 </v>
   <v>      -0.00480873      -0.01050705      -0.00584737 </v>
   <v>      -0.00353938      -0.00728913       0.00008390 </v>
   <v>       0.00017682      -0.00888565       0.00235797 </v>
   <v>      -0.00586654       0.00945114      -0.00019497 </v>
   <v>       0.00605732       0.00037120       0.00267649 </v>
   <v>       0.00549644       0.00008106       0.00453362 </v>
   <v>       0.00587673      -0.00825830      -0.00370908 </v>
   <v>       0.00041107      -0.00653731      -0.00538081 </v>
   <v>      -0.00097161      -0.00375722       0.01196301 </v>
   <v>      -0.00567856      -0.00822830      -0.00453321 </v>
   <v>      -0.00539495      -0.00180032       0.00163572 </v>
   <v>      -0.00398885       0.00432407       0.00513259 </v>
   <v>       0.01067022       0.00042201      -0.00362175 </v>
   <v>      -0.11550115      -0.20053862      -0.10580964 </v>
   <v>       0.12155980      -0.21301071       0.02074444 </v>
   <v>       0.00073077       0.00728529      -0.00329471 </v>
   <v>       0.00007007       0.00181361      -0.00458161 </v>
  </varray>
  <varray name="stress" >
   <v>      -0.18902034       0.04458029       0.01463234 </v>
   <v>       0.04458029      -0.18495844       0.02216983 </v>
   <v>       0.01463232       0.02216984      -0.15802585 </v>
  </varray>
  <energy>
   <i name="e_fr_energy">   -102.69737934 </i>
   <i name="e_wo_entrp">   -102.69737934 </i>
   <i name="e_0_energy">     -0.00000000 </i>
  </energy>
  <kpoints>
   <generation param="Gamma">
    <v type="int" name="divisions">       1        1        1 </v>
    <v name="usershift">      0.00000000       0.00000000       0.00000000 </v>
    <v name="genvec1">      1.00000000       0.00000000       0.00000000 </v>
    <v name="genvec2">      0.00000000       1.00000000       0.00000000 </v>
    <v name="genvec3">      0.00000000       0.00000000       1.00000000 </v>
    <v name="shift">      0.00000000       0.00000000       0.00000000 </v>
   </generation>
   <varray name="kpointlist" >
    <v>       0.00000000       0.00000000       0.00000000 </v>
   </varray>
   <varray name="weights" >
    <v>       1.00000000 </v>
   </varray>
  </kpoints>
  <time name="totalsc">  361.18  361.51</time>
 </calculation>
 <calculation>
  <scstep>
   <time name="dav">   16.56   16.60</time>
   <time name="total">   18.93   18.97</time>
   <energy>
    <i name="alphaZ">      1.96423985 </i>
    <i name="ewald">   2632.17671361 </i>
    <i name="hartreedc">  -3566.57695767 </i>
    <i name="XCdc">    -42.02333828 </i>
    <i name="pawpsdc">   4143.30217261 </i>
    <i name="pawaedc">  -3981.65463547 </i>
    <i name="eentropy">     -0.00000000 </i>
    <i name="bandstr">   -527.92118518 </i>
    <i name="atom">   1238.03527989 </i>
    <i name="e_fr_energy">   -102.69771064 </i>
    <i name="e_wo_entrp">   -102.69771064 </i>
    <i name="e_0_energy">   -102.69771064 </i>
   </energy>
  </scstep>
  <scstep>
   <time name="dav">   21.22   21.27</time>
   <time name="total">   23.58   23.64</time>
   <energy>
    <i name="e_fr_energy">   -102.69890253 </i>
    <i name="e_wo_entrp">   -102.69890253 </i>
    <i name="e_0_energy">   -102.69890253 </i>
   </energy>
  </scstep>
  <scstep>
   <time name="dav">   22.78   22.82</time>
   <time name="total">   25.16   25.21</time>
   <energy>
    <i name="e_fr_energy">   -102.69884796 </i>
    <i name="e_wo_entrp">   -102.69884796 </i>
    <i name="e_0_energy">   -102.69884796 </i>
   </energy>
  </scstep>
  <scstep>
   <time name="dav">   21.21   21.25</time>
   <time name="total">   23.58   23.63</time>
   <energy>
    <i name="e_fr_energy">   -102.69885146 </i>
    <i name="e_wo_entrp">   -102.69885146 </i>
    <i name="e_0_energy">   -102.69885146 </i>
   </energy>
  </scstep>
  <scstep>
   <time name="dav">   21.23   21.27</time>
   <time name="total">   23.60   23.64</time>
   <energy>
    <i name="e_fr_energy">   -102.69884570 </i>
    <i name="e_wo_entrp">   -102.69884570 </i>
    <i name="e_0_energy">   -102.69884570 </i>
   </energy>
  </scstep>
  <scstep>
   <time name="dav">   21.26   21.25</time>
   <time name="total">   23.65   23.64</time>
   <energy>
    <i name="e_fr_energy">   -102.69884860 </i>
    <i name="e_wo_entrp">   -102.69884860 </i>
    <i name="e_0_energy">   -102.69884860 </i>
   </energy>
  </scstep>
  <scstep>
   <time name="dav">   18.17   18.16</time>
   <time name="total">   20.54   20.55</time>
   <energy>
    <i name="e_fr_energy">   -102.69885972 </i>
    <i name="e_wo_entrp">   -102.69885972 </i>
    <i name="e_0_energy">   -102.69885972 </i>
   </energy>
  </scstep>
  <scstep>
   <time name="dav">   19.74   19.73</time>
   <time name="total">   22.12   22.11</time>
   <energy>
    <i name="e_fr_energy">   -102.69887687 </i>
    <i name="e_wo_entrp">   -102.69887687 </i>
    <i name="e_0_energy">   -102.69887687 </i>
   </energy>
  </scstep>
  <scstep>
   <time name="dav">   19.72   19.71</time>
   <time name="total">   22.11   22.10</time>
   <energy>
    <i name="e_fr_energy">   -102.69888805 </i>
    <i name="e_wo_entrp">   -102.69888805 </i>
    <i name="e_0_energy">   -102.69888805 </i>
   </energy>
  </scstep>
  <scstep>
   <time name="dav">   18.16   18.15</time>
   <time name="total">   20.55   20.55</time>
   <energy>
    <i name="e_fr_energy">   -102.69889724 </i>
    <i name="e_wo_entrp">   -102.69889724 </i>
    <i name="e_0_energy">   -102.69889724 </i>
   </energy>
  </scstep>
  <scstep>
   <time name="dav">   18.16   18.15</time>
   <time name="total">   20.55   20.55</time>
   <energy>
    <i name="e_fr_energy">   -102.69890164 </i>
    <i name="e_wo_entrp">   -102.69890164 </i>
    <i name="e_0_energy">   -102.69890164 </i>
   </energy>
  </scstep>
  <scstep>
   <time name="dav">   16.60   16.59</time>
   <time name="total">   19.02   19.02</time>
   <energy>
    <i name="e_fr_energy">   -102.69890572 </i>
    <i name="e_wo_entrp">   -102.69890572 </i>
    <i name="e_0_energy">   -102.69890572 </i>
   </energy>
  </scstep>
  <scstep>
   <time name="dav">   18.17   18.17</time>
   <time name="total">   20.59   20.59</time>
   <energy>
    <i name="e_fr_energy">   -102.69890731 </i>
    <i name="e_wo_entrp">   -102.69890731 </i>
    <i name="e_0_energy">   -102.69890731 </i>
   </energy>
  </scstep>
  <scstep>
   <time name="dav">   16.61   16.60</time>
   <time name="total">   19.04   19.03</time>
   <energy>
    <i name="e_fr_energy">   -102.69890847 </i>
    <i name="e_wo_entrp">   -102.69890847 </i>
    <i name="e_0_energy">   -102.69890847 </i>
   </energy>
  </scstep>
  <scstep>
   <time name="dav">   18.17   18.16</time>
   <time name="total">   19.98   19.98</time>
   <energy>
    <i name="alphaZ">      1.96423985 </i>
    <i name="ewald">   2632.17671361 </i>
    <i name="hartreedc">  -3566.49147215 </i>
    <i name="XCdc">    -42.03062597 </i>
    <i name="pawpsdc">   4142.46144859 </i>
    <i name="pawaedc">  -3980.81383753 </i>
    <i name="eentropy">     -0.00000000 </i>
    <i name="bandstr">   -528.00065516 </i>
    <i name="atom">   1238.03527989 </i>
    <i name="e_fr_energy">   -102.69890886 </i>
    <i name="e_wo_entrp">   -102.69890886 </i>
    <i name="e_0_energy">   -102.69890886 </i>
   </energy>
  </scstep>
  <structure>
   <crystal>
    <varray name="basis" >
     <v>      20.00000000       0.00000000       0.00000000 </v>
     <v>       0.00000000      20.00000000       0.00000000 </v>
     <v>       0.00000000       0.00000000      20.00000000 </v>
    </varray>
    <i name="volume">   8000.00000000 </i>
    <varray name="rec_basis" >
     <v>       0.05000000       0.00000000       0.00000000 </v>
     <v>       0.00000000       0.05000000       0.00000000 </v>
     <v>       0.00000000       0.00000000       0.05000000 </v>
    </varray>
   </crystal>
   <varray name="positions" >
    <v>       0.36849439       0.53909913       0.43710395 </v>
    <v>       0.54203076       0.45708859       0.39564349 </v>
    <v>       0.53130358       0.64849476       0.43719749 </v>
    <v>       0.61357376       0.52478550       0.56527267 </v>
    <v>       0.45076848       0.41537799       0.56417911 </v>
    <v>       0.44003906       0.60679128       0.60574173 </v>
    <v>       0.47539508       0.55637575       0.38409147 </v>
    <v>       0.38410808       0.51465766       0.55268258 </v>
    <v>       0.55769627       0.43262323       0.51220945 </v>
    <v>       0.54696077       0.62409452       0.55377672 </v>
    <v>       0.41590239       0.35750455       0.53191422 </v>
    <v>       0.46008825       0.39931791       0.63672462 </v>
    <v>       0.60105362       0.36803411       0.51970488 </v>
    <v>       0.68063139       0.53539504       0.53368649 </v>
    <v>       0.62424559       0.50964060       0.63782104 </v>
    <v>       0.60849697       0.46715403       0.36265779 </v>
    <v>       0.50792385       0.39955427       0.36198792 </v>
    <v>       0.46522530       0.57226877       0.30825055 </v>
    <v>       0.58333173       0.68403186       0.58830193 </v>
    <v>       0.44927020       0.59231010       0.67862971 </v>
    <v>       0.39844785       0.66873580       0.59949175 </v>
    <v>       0.31455839       0.50341993       0.58650703 </v>
    <v>       0.33294576       0.48223687       0.40278823 </v>
    <v>       0.32632000       0.60049345       0.42845252 </v>
    <v>       0.49047295       0.71078611       0.42954541 </v>
    <v>       0.59768551       0.66012820       0.40455424 </v>
   </varray>
  </structure>
  <varray name="forces" >
   <v>      -0.05035526      -0.03615445      -0.33475730 </v>
[...]
    <v name="genvec3">      0.00000000       0.00000000       1.00000000 </v>
    <v name="shift">      0.00000000       0.00000000       0.00000000 </v>
   </generation>
   <varray name="kpointlist" >
    <v>       0.00000000       0.00000000       0.00000000 </v>
   </varray>
   <varray name="weights" >
    <v>       1.00000000 </v>
   </varray>
  </kpoints>
  <time name="totalsc">  144.62  144.85</time>
  <eigenvalues>
   <array>
    <dimension dim="1">band</dimension>
    <dimension dim="2">kpoint</dimension>
    <dimension dim="3">spin</dimension>
    <field>eigene</field>
    <field>occ</field>
    <set>
     <set comment="spin 1">
      <set comment="kpoint 1">
       <r>  -15.1424    1.0000 </r>
       <r>  -14.1242    1.0000 </r>
       <r>  -14.1226    1.0000 </r>
       <r>  -14.1200    1.0000 </r>
       <r>  -12.6883    1.0000 </r>
       <r>  -12.6833    1.0000 </r>
       <r>  -11.6663    1.0000 </r>
       <r>  -11.6651    1.0000 </r>
       <r>  -11.6596    1.0000 </r>
       <r>  -10.6583    1.0000 </r>
       <r>   -8.9427    1.0000 </r>
       <r>   -8.6847    1.0000 </r>
       <r>   -8.6822    1.0000 </r>
       <r>   -8.6754    1.0000 </r>
       <r>   -8.2938    1.0000 </r>
       <r>   -8.2932    1.0000 </r>
       <r>   -8.2835    1.0000 </r>
       <r>   -7.8544    1.0000 </r>
       <r>   -7.8518    1.0000 </r>
       <r>   -7.8513    1.0000 </r>
       <r>   -6.8049    1.0000 </r>
       <r>   -6.8030    1.0000 </r>
       <r>   -6.4343    1.0000 </r>
       <r>   -6.4313    1.0000 </r>
       <r>   -6.4281    1.0000 </r>
       <r>   -6.3708    1.0000 </r>
       <r>   -6.3686    1.0000 </r>
       <r>   -6.3656    1.0000 </r>
       <r>   -1.5727    0.0000 </r>
       <r>   -1.3416    0.0000 </r>
       <r>   -1.3361    0.0000 </r>
       <r>   -1.3325    0.0000 </r>
       <r>   -0.9896    0.0000 </r>
       <r>   -0.9829    0.0000 </r>
       <r>   -0.9814    0.0000 </r>
       <r>   -0.9182    0.0000 </r>
       <r>   -0.9174    0.0000 </r>
       <r>   -0.5721    0.0000 </r>
       <r>   -0.2768    0.0000 </r>
       <r>   -0.2204    0.0000 </r>
       <r>   -0.2166    0.0000 </r>
       <r>   -0.2142    0.0000 </r>
       <r>    0.1056    0.0000 </r>
       <r>    0.1112    0.0000 </r>
       <r>    0.1149    0.0000 </r>
       <r>    0.1616    0.0000 </r>
       <r>    0.1634    0.0000 </r>
       <r>    0.1697    0.0000 </r>
      </set>
     </set>
    </set>
   </array>
  </eigenvalues>
  <separator name="orbital magnetization" >
   <v name="MAGDIPOLOUT">      0.00000000      0.00000000      0.00000000</v>
  </separator>
  <dos>
   <i name="efermi">     -5.42634053 </i>
   <total>
    <array>
     <dimension dim="1">gridpoints</dimension>
     <dimension dim="2">spin</dimension>
     <field>energy</field>
     <field>total</field>
     <field>integrated</field>
     <set>
      <set comment="spin 1">
       <r>   -17.1424     0.0000     0.0000 </r>
       <r>   -17.0780     0.0000     0.0000 </r>
       <r>   -17.0137     0.0000     0.0000 </r>
       <r>   -16.9493     0.0000     0.0000 </r>
       <r>   -16.8849     0.0000     0.0000 </r>
       <r>   -16.8205     0.0000     0.0000 </r>
       <r>   -16.7562     0.0000     0.0000 </r>
       <r>   -16.6918     0.0000     0.0000 </r>
       <r>   -16.6274     0.0000     0.0000 </r>
       <r>   -16.5631     0.0000     0.0000 </r>
       <r>   -16.4987     0.0000     0.0000 </r>
       <r>   -16.4343     0.0000     0.0000 </r>
       <r>   -16.3699     0.0000     0.0000 </r>
       <r>   -16.3056     0.0000     0.0000 </r>
       <r>   -16.2412     0.0000     0.0000 </r>
       <r>   -16.1768     0.0000     0.0000 </r>
       <r>   -16.1124     0.0000     0.0000 </r>
       <r>   -16.0481     0.0000     0.0000 </r>
       <r>   -15.9837     0.0000     0.0000 </r>
       <r>   -15.9193     0.0000     0.0000 </r>
       <r>   -15.8549     0.0000     0.0000 </r>
       <r>   -15.7906     0.0001     0.0000 </r>
       <r>   -15.7262     0.0005     0.0000 </r>
       <r>   -15.6618     0.0032     0.0002 </r>
       <r>   -15.5974     0.0164     0.0013 </r>
       <r>   -15.5331     0.0691     0.0057 </r>
       <r>   -15.4687     0.2378     0.0210 </r>
       <r>   -15.4043     0.6677     0.0640 </r>
       <r>   -15.3400     1.5293     0.1625 </r>
       <r>   -15.2756     2.8571     0.3464 </r>
       <r>   -15.2112     4.3539     0.6267 </r>
       <r>   -15.1468     5.4124     0.9751 </r>
       <r>   -15.0825     5.4886     1.3284 </r>
       <r>   -15.0181     4.5403     1.6207 </r>
       <r>   -14.9537     3.0638     1.8179 </r>
       <r>   -14.8893     1.6864     1.9265 </r>
       <r>   -14.8250     0.7572     1.9752 </r>
       <r>   -14.7606     0.2776     1.9931 </r>
       <r>   -14.6962     0.0848     1.9985 </r>
       <r>   -14.6318     0.0325     2.0006 </r>
       <r>   -14.5675     0.0660     2.0049 </r>
       <r>   -14.5031     0.2543     2.0213 </r>
       <r>   -14.4387     0.8466     2.0758 </r>
       <r>   -14.3743     2.3039     2.2241 </r>
       <r>   -14.3100     5.1146     2.5533 </r>
       <r>   -14.2456     9.2618     3.1495 </r>
       <r>   -14.1812    13.6813     4.0302 </r>
       <r>   -14.1169    16.4864     5.0915 </r>
       <r>   -14.0525    16.2067     6.1348 </r>
       <r>   -13.9881    12.9967     6.9715 </r>
       <r>   -13.9237     8.5023     7.5188 </r>
       <r>   -13.8594     4.5372     7.8109 </r>
       <r>   -13.7950     1.9750     7.9380 </r>
       <r>   -13.7306     0.7012     7.9831 </r>
       <r>   -13.6662     0.2031     7.9962 </r>
       <r>   -13.6019     0.0480     7.9993 </r>
       <r>   -13.5375     0.0092     7.9999 </r>
       <r>   -13.4731     0.0015     8.0000 </r>
       <r>   -13.4087     0.0002     8.0000 </r>
       <r>   -13.3444     0.0001     8.0000 </r>
       <r>   -13.2800     0.0007     8.0001 </r>
       <r>   -13.2156     0.0048     8.0004 </r>
       <r>   -13.1512     0.0255     8.0020 </r>
       <r>   -13.0869     0.1111     8.0091 </r>
       <r>   -13.0225     0.3951     8.0346 </r>
       <r>   -12.9581     1.1462     8.1084 </r>
       <r>   -12.8938     2.7126     8.2830 </r>
       <r>   -12.8294     5.2366     8.6201 </r>
       <r>   -12.7650     8.2465     9.1509 </r>
       <r>   -12.7006    10.5941     9.8329 </r>
       <r>   -12.6363    11.1030    10.5477 </r>
       <r>   -12.5719     9.4930    11.1588 </r>
       <r>   -12.5075     6.6213    11.5850 </r>
       <r>   -12.4431     3.7675    11.8275 </r>
       <r>   -12.3788     1.7487    11.9401 </r>
       <r>   -12.3144     0.6622    11.9827 </r>
       <r>   -12.2500     0.2058    11.9960 </r>
       <r>   -12.1856     0.0604    11.9999 </r>
       <r>   -12.1213     0.0568    12.0035 </r>
       <r>   -12.0569     0.1985    12.0163 </r>
       <r>   -11.9925     0.6829    12.0603 </r>
       <r>   -11.9281     1.9317    12.1846 </r>
       <r>   -11.8638     4.4585    12.4716 </r>
       <r>   -11.7994     8.3948    13.0120 </r>
       <r>   -11.7350    12.8942    13.8421 </r>
       <r>   -11.6707    16.1573    14.8822 </r>
       <r>   -11.6063    16.5171    15.9454 </r>
       <r>   -11.5419    13.7751    16.8322 </r>
       <r>   -11.4775     9.3722    17.4355 </r>
       <r>   -11.4132     5.2019    17.7704 </r>
       <r>   -11.3488     2.3553    17.9220 </r>
       <r>   -11.2844     0.8700    17.9780 </r>
       <r>   -11.2200     0.2630    17.9949 </r>
       <r>   -11.1557     0.0701    17.9994 </r>
       <r>   -11.0913     0.0403    18.0020 </r>
       <r>   -11.0269     0.1100    18.0091 </r>
       <r>   -10.9625     0.3466    18.0314 </r>
       <r>   -10.8982     0.9071    18.0898 </r>
       <r>   -10.8338     1.9376    18.2146 </r>
       <r>   -10.7694     3.3763    18.4319 </r>
       <r>   -10.7050     4.7990    18.7408 </r>
       <r>   -10.6407     5.5644    19.0990 </r>
       <r>   -10.5763     5.2631    19.4378 </r>
       <r>   -10.5119     4.0608    19.6992 </r>
       <r>   -10.4476     2.5559    19.8638 </r>
       <r>   -10.3832     1.3122    19.9482 </r>
       <r>   -10.3188     0.5495    19.9836 </r>
       <r>   -10.2544     0.1877    19.9957 </r>
       <r>   -10.1901     0.0523    19.9991 </r>
       <r>   -10.1257     0.0119    19.9998 </r>
       <r>   -10.0613     0.0022    20.0000 </r>
       <r>    -9.9969     0.0003    20.0000 </r>
       <r>    -9.9326     0.0000    20.0000 </r>
       <r>    -9.8682     0.0000    20.0000 </r>
       <r>    -9.8038     0.0000    20.0000 </r>
       <r>    -9.7394     0.0000    20.0000 </r>
       <r>    -9.6751     0.0000    20.0000 </r>
       <r>    -9.6107     0.0000    20.0000 </r>
       <r>    -9.5463     0.0003    20.0000 </r>
       <r>    -9.4819     0.0018    20.0001 </r>
       <r>    -9.4176     0.0101    20.0008 </r>
       <r>    -9.3532     0.0454    20.0037 </r>
       <r>    -9.2888     0.1668    20.0144 </r>
       <r>    -9.2245     0.5014    20.0467 </r>
       <r>    -9.1601     1.2380    20.1264 </r>
       <r>    -9.0957     2.5323    20.2894 </r>
       <r>    -9.0313     4.3677    20.5706 </r>
       <r>    -8.9670     6.5650    20.9932 </r>
       <r>    -8.9026     9.0266    21.5743 </r>
       <r>    -8.8382    11.8614    22.3379 </r>
       <r>    -8.7738    14.9711    23.3016 </r>
       <r>    -8.7095    17.4995    24.4281 </r>
       <r>    -8.6451    18.1828    25.5986 </r>
       <r>    -8.5807    16.6664    26.6715 </r>
       <r>    -8.5163    14.2983    27.5919 </r>
       <r>    -8.4520    13.1831    28.4406 </r>
       <r>    -8.3876    14.2656    29.3589 </r>
       <r>    -8.3232    16.3883    30.4139 </r>
       <r>    -8.2588    17.3224    31.5290 </r>
       <r>    -8.1945    15.8354    32.5483 </r>
       <r>    -8.1301    12.8381    33.3748 </r>
       <r>    -8.0657    10.5960    34.0569 </r>
       <r>    -8.0014    10.8336    34.7543 </r>
       <r>    -7.9370    13.3497    35.6137 </r>
       <r>    -7.8726    16.1288    36.6519 </r>
       <r>    -7.8082    16.8365    37.7358 </r>
       <r>    -7.7439    14.5587    38.6730 </r>
       <r>    -7.6795    10.3098    39.3366 </r>
       <r>    -7.6151     5.9615    39.7204 </r>
       <r>    -7.5507     2.8126    39.9015 </r>
       <r>    -7.4864     1.0824    39.9711 </r>
       <r>    -7.4220     0.3401    39.9930 </r>
       <r>    -7.3576     0.0894    39.9988 </r>
       <r>    -7.2932     0.0321    40.0009 </r>
       <r>    -7.2289     0.0689    40.0053 </r>
       <r>    -7.1645     0.2530    40.0216 </r>
       <r>    -7.1001     0.7908    40.0725 </r>
       <r>    -7.0357     2.0191    40.2025 </r>
       <r>    -6.9714     4.2084    40.4734 </r>
       <r>    -6.9070     7.1723    40.9351 </r>
       <r>    -6.8426    10.0522    41.5822 </r>
       <r>    -6.7783    11.8034    42.3420 </r>
       <r>    -6.7139    12.2770    43.1323 </r>
       <r>    -6.6495    12.8465    43.9593 </r>
       <r>    -6.5851    15.5812    44.9623 </r>
       <r>    -6.5208    21.3050    46.3338 </r>
       <r>    -6.4564    28.2123    48.1499 </r>
       <r>    -6.3920    32.6218    50.2499 </r>
       <r>    -6.3276    31.6382    52.2866 </r>
       <r>    -6.2633    25.4105    53.9224 </r>
       <r>    -6.1989    16.8346    55.0061 </r>
       <r>    -6.1345     9.1863    55.5974 </r>
       <r>    -6.0701     4.1252    55.8630 </r>
       <r>    -6.0058     1.5233    55.9610 </r>
       <r>    -5.9414     0.4622    55.9908 </r>
       <r>    -5.8770     0.1151    55.9982 </r>
       <r>    -5.8126     0.0235    55.9997 </r>
       <r>    -5.7483     0.0039    56.0000 </r>
       <r>    -5.6839     0.0005    56.0000 </r>
       <r>    -5.6195     0.0001    56.0000 </r>
       <r>    -5.5552     0.0000    56.0000 </r>
       <r>    -5.4908     0.0000    56.0000 </r>
       <r>    -5.4264     0.0000    56.0000 </r>
       <r>    -5.3620     0.0000    56.0000 </r>
       <r>    -5.2977     0.0000    56.0000 </r>
       <r>    -5.2333     0.0000    56.0000 </r>
       <r>    -5.1689     0.0000    56.0000 </r>
       <r>    -5.1045     0.0000    56.0000 </r>
       <r>    -5.0402     0.0000    56.0000 </r>
       <r>    -4.9758     0.0000    56.0000 </r>
       <r>    -4.9114     0.0000    56.0000 </r>
       <r>    -4.8470     0.0000    56.0000 </r>
       <r>    -4.7827     0.0000    56.0000 </r>
       <r>    -4.7183     0.0000    56.0000 </r>
       <r>    -4.6539     0.0000    56.0000 </r>
       <r>    -4.5895     0.0000    56.0000 </r>
       <r>    -4.5252     0.0000    56.0000 </r>
       <r>    -4.4608     0.0000    56.0000 </r>
       <r>    -4.3964     0.0000    56.0000 </r>
       <r>    -4.3321     0.0000    56.0000 </r>
       <r>    -4.2677     0.0000    56.0000 </r>
       <r>    -4.2033     0.0000    56.0000 </r>
       <r>    -4.1389     0.0000    56.0000 </r>
       <r>    -4.0746     0.0000    56.0000 </r>
       <r>    -4.0102     0.0000    56.0000 </r>
       <r>    -3.9458     0.0000    56.0000 </r>
       <r>    -3.8814     0.0000    56.0000 </r>
       <r>    -3.8171     0.0000    56.0000 </r>
       <r>    -3.7527     0.0000    56.0000 </r>
       <r>    -3.6883     0.0000    56.0000 </r>
       <r>    -3.6239     0.0000    56.0000 </r>
       <r>    -3.5596     0.0000    56.0000 </r>
       <r>    -3.4952     0.0000    56.0000 </r>
       <r>    -3.4308     0.0000    56.0000 </r>
       <r>    -3.3664     0.0000    56.0000 </r>
       <r>    -3.3021     0.0000    56.0000 </r>
       <r>    -3.2377     0.0000    56.0000 </r>
       <r>    -3.1733     0.0000    56.0000 </r>
       <r>    -3.1090     0.0000    56.0000 </r>
       <r>    -3.0446     0.0000    56.0000 </r>
       <r>    -2.9802     0.0000    56.0000 </r>
       <r>    -2.9158     0.0000    56.0000 </r>
       <r>    -2.8515     0.0000    56.0000 </r>
       <r>    -2.7871     0.0000    56.0000 </r>
       <r>    -2.7227     0.0000    56.0000 </r>
       <r>    -2.6583     0.0000    56.0000 </r>
       <r>    -2.5940     0.0000    56.0000 </r>
       <r>    -2.5296     0.0000    56.0000 </r>
       <r>    -2.4652     0.0000    56.0000 </r>
       <r>    -2.4008     0.0000    56.0000 </r>
       <r>    -2.3365     0.0000    56.0000 </r>
       <r>    -2.2721     0.0000    56.0000 </r>
       <r>    -2.2077     0.0001    56.0000 </r>
       <r>    -2.1433     0.0007    56.0001 </r>
       <r>    -2.0790     0.0045    56.0003 </r>
       <r>    -2.0146     0.0224    56.0018 </r>
       <r>    -1.9502     0.0910    56.0076 </r>
       <r>    -1.8859     0.3028    56.0271 </r>
       <r>    -1.8215     0.8280    56.0804 </r>
       <r>    -1.7571     1.8767    56.2013 </r>
       <r>    -1.6927     3.5810    56.4318 </r>
       <r>    -1.6284     5.9068    56.8120 </r>
       <r>    -1.5640     8.7345    57.3743 </r>
       <r>    -1.4996    11.9721    58.1450 </r>
       <r>    -1.4352    15.3520    59.1332 </r>
       <r>    -1.3709    18.0784    60.2970 </r>
       <r>    -1.3065    19.1448    61.5294 </r>
       <r>    -1.2421    18.4973    62.7202 </r>
       <r>    -1.1777    17.7165    63.8607 </r>
       <r>    -1.1134    18.9071    65.0778 </r>
       <r>    -1.0490    22.5446    66.5290 </r>
       <r>    -0.9846    26.5498    68.2382 </r>
       <r>    -0.9202    27.8223    70.0292 </r>
       <r>    -0.8559    24.8909    71.6315 </r>
       <r>    -0.7915    19.0933    72.8606 </r>
       <r>    -0.7271    13.2576    73.7140 </r>
       <r>    -0.6628     9.4374    74.3216 </r>
       <r>    -0.5984     7.8983    74.8300 </r>
       <r>    -0.5340     7.9071    75.3390 </r>
       <r>    -0.4696     9.0710    75.9229 </r>
       <r>    -0.4053    11.7002    76.6761 </r>
       <r>    -0.3409    15.8728    77.6979 </r>
       <r>    -0.2765    20.4172    79.0123 </r>
       <r>    -0.2121    23.3602    80.5160 </r>
       <r>    -0.1478    23.8055    82.0485 </r>
       <r>    -0.0834    23.2235    83.5435 </r>
       <r>    -0.0190    24.2975    85.1076 </r>
       <r>     0.0454    28.0955    86.9162 </r>
       <r>     0.1097    32.4876    89.0075 </r>
       <r>     0.1741    33.7168    91.1780 </r>
       <r>     0.2385    29.7002    93.0899 </r>
       <r>     0.3029    21.7341    94.4890 </r>
       <r>     0.3672    13.1144    95.3333 </r>
       <r>     0.4316     6.5075    95.7522 </r>
       <r>     0.4960     2.6524    95.9229 </r>
       <r>     0.5603     0.8874    95.9800 </r>
       <r>     0.6247     0.2435    95.9957 </r>
       <r>     0.6891     0.0548    95.9992 </r>
       <r>     0.7535     0.0101    95.9999 </r>
       <r>     0.8178     0.0015    96.0000 </r>
       <r>     0.8822     0.0002    96.0000 </r>
       <r>     0.9466     0.0000    96.0000 </r>
       <r>     1.0110     0.0000    96.0000 </r>
       <r>     1.0753     0.0000    96.0000 </r>
       <r>     1.1397     0.0000    96.0000 </r>
       <r>     1.2041     0.0000    96.0000 </r>
       <r>     1.2685     0.0000    96.0000 </r>
       <r>     1.3328     0.0000    96.0000 </r>
       <r>     1.3972     0.0000    96.0000 </r>
       <r>     1.4616     0.0000    96.0000 </r>
       <r>     1.5260     0.0000    96.0000 </r>
       <r>     1.5903     0.0000    96.0000 </r>
       <r>     1.6547     0.0000    96.0000 </r>
       <r>     1.7191     0.0000    96.0000 </r>
       <r>     1.7834     0.0000    96.0000 </r>
       <r>     1.8478     0.0000    96.0000 </r>
       <r>     1.9122     0.0000    96.0000 </r>
       <r>     1.9766     0.0000    96.0000 </r>
       <r>     2.0409     0.0000    96.0000 </r>
       <r>     2.1053     0.0000    96.0000 </r>
       <r>     2.1697     0.0000    96.0000 </r>
      </set>
     </set>
    </array>
   </total>
  </dos>
 </calculation>
 <structure name="finalpos" >
  <crystal>
   <varray name="basis" >
    <v>      20.00000000       0.00000000       0.00000000 </v>
    <v>       0.00000000      20.00000000       0.00000000 </v>
    <v>       0.00000000       0.00000000      20.00000000 </v>
   </varray>
   <i name="volume">   8000.00000000 </i>
   <varray name="rec_basis" >
    <v>       0.05000000       0.00000000       0.00000000 </v>
    <v>       0.00000000       0.05000000       0.00000000 </v>
    <v>       0.00000000       0.00000000       0.05000000 </v>
   </varray>
  </crystal>
  <varray name="positions" >
   <v>       0.36849439       0.53909913       0.43610395 </v>
   <v>       0.54203076       0.45708859       0.39564349 </v>
   <v>       0.53130358       0.64849476       0.43719749 </v>
   <v>       0.61357376       0.52478550       0.56527267 </v>
   <v>       0.45076848       0.41537799       0.56417911 </v>
   <v>       0.44003906       0.60679128       0.60574173 </v>
   <v>       0.47539508       0.55637575       0.38409147 </v>
   <v>       0.38410808       0.51465766       0.55268258 </v>
   <v>       0.55769627       0.43262323       0.51220945 </v>
   <v>       0.54696077       0.62409452       0.55377672 </v>
   <v>       0.41590239       0.35750455       0.53191422 </v>
   <v>       0.46008825       0.39931791       0.63672462 </v>
   <v>       0.60105362       0.36803411       0.51970488 </v>
   <v>       0.68063139       0.53539504       0.53368649 </v>
   <v>       0.62424559       0.50964060       0.63782104 </v>
   <v>       0.60849697       0.46715403       0.36265779 </v>
   <v>       0.50792385       0.39955427       0.36198792 </v>
   <v>       0.46522530       0.57226877       0.30825055 </v>
   <v>       0.58333173       0.68403186       0.58830193 </v>
   <v>       0.44927020       0.59231010       0.67862971 </v>
   <v>       0.39844785       0.66873580       0.59949175 </v>
   <v>       0.31455839       0.50341993       0.58650703 </v>
   <v>       0.33294576       0.48223687       0.40278823 </v>
   <v>       0.32632000       0.60049345       0.42845252 </v>
   <v>       0.49047295       0.71078611       0.42954541 </v>
   <v>       0.59768551       0.66012820       0.40355424 </v>
  </varray>
 </structure>
</modeling>
